          AutoDock 4.2 Release 4.2.6   
         (C) 1989-2012 The Scripps Research Institute
        AutoDock comes with ABSOLUTELY NO WARRANTY.
        AutoDock is free software, and you are welcome
        to redistribute it under certain conditions;
        for details type 'autodock4 -C'

                     main.cc  $Revision: 1.213 $

                   Compiled on Mar 22 2020 at 15:34:10


This file was created at:			2:32 12" p.m., 05/18/2023
                   on host:		"asus-F509FB"
Current Working Directory = "/media/asus/shityakoff/Collaborators_students/Hfid/fungi"

      ________________________________________________________________

                   SETTING UP DEFAULT PARAMETER LIBRARY
      ________________________________________________________________


Random number generator was seeded with values 11783, 1684409532.
Docking parameter file (DPF) used for this docking:		limonene.dpf
DPF> autodock_parameter_version 4.2       # used by autodock to validate parameter set

	Autodock parameter version 4.2.
DPF> outlev 1                             # diagnostic output level

Output Level = 1  ADT-COMPATIBLE OUTPUT DURING DOCKING.
DPF> intelec                              # calculate internal electrostatics

Electrostatic energies will be calculated for all non-bonds between moving atoms.
DPF> seed pid time                        # seeds for random generator

Random number generator was seeded with values 11783, 1684409532.
DPF> ligand_types C                       # atoms types in ligand

DPF> fld receptor.mem_erg.maps.fld        # grid_data_file

Opening Grid Map Dimensions file:		receptor.mem_erg.maps.fld
Grid Point Spacing =				0.375 Angstroms

Even Number of User-specified Grid Points =	300 x-points
						300 y-points
						60 z-points

Coordinates of Central Grid Point of Maps =	(-2.010, 2.090, 9.340)
Macromolecule file used to create Grid Maps =	receptor.mem_erg.pdbqt
Grid Parameter file used to create Grid Maps =	mem_erg.gpf
Minimum coordinates in grid = (-58.260, -54.160, -1.910)
Maximum coordinates in grid = (54.240, 58.340, 20.590)

DPF> map receptor.mem_erg.C.map           # atom-specific affinity map

DPF> elecmap receptor.mem_erg.e.map       # electrostatics map

DPF> desolvmap receptor.mem_erg.d.map     # desolvation map

DPF> move limonene.pdbqt                  # small molecule

1,4-interactions will be _ignored_ in the non-bonded internal energy calculation.

Ligand PDBQT file = "limonene.pdbqt"

INPUT LIGAND PDBQT FILE:
________________________

INPUT-LIGAND-PDBQT: REMARK  1 active torsions:
INPUT-LIGAND-PDBQT: REMARK  status: ('A' for Active; 'I' for Inactive)
INPUT-LIGAND-PDBQT: REMARK    1  A    between atoms: C_1  and  C_7 
INPUT-LIGAND-PDBQT: ROOT
INPUT-LIGAND-PDBQT: HETATM    1  C   UNK     0       0.719  -0.043  -0.366  0.00  0.00     0.017 C 
INPUT-LIGAND-PDBQT: HETATM    2  C   UNK     0       0.042  -1.208   0.353  0.00  0.00     0.013 C 
INPUT-LIGAND-PDBQT: HETATM    3  C   UNK     0       0.038   1.284  -0.018  0.00  0.00     0.036 C 
INPUT-LIGAND-PDBQT: HETATM    4  C   UNK     0      -1.441  -1.299  -0.017  0.00  0.00     0.034 C 
INPUT-LIGAND-PDBQT: HETATM    5  C   UNK     0      -2.140   0.038  -0.038  0.00  0.00    -0.087 C 
INPUT-LIGAND-PDBQT: HETATM    6  C   UNK     0      -1.460   1.197  -0.022  0.00  0.00    -0.024 C 
INPUT-LIGAND-PDBQT: HETATM    7  C   UNK     0      -3.639  -0.002  -0.080  0.00  0.00     0.043 C 
INPUT-LIGAND-PDBQT: ENDROOT
INPUT-LIGAND-PDBQT: BRANCH   1   8
INPUT-LIGAND-PDBQT: HETATM    8  C   UNK     0       2.167   0.006   0.013  0.00  0.00    -0.089 C 
INPUT-LIGAND-PDBQT: HETATM    9  C   UNK     0       3.150  -0.169  -1.107  0.00  0.00     0.043 C 
INPUT-LIGAND-PDBQT: HETATM   10  C   UNK     0       2.563   0.197   1.280  0.00  0.00     0.014 C 
INPUT-LIGAND-PDBQT: ENDBRANCH   1   8
INPUT-LIGAND-PDBQT: TORSDOF 1
________________________________________________________________________________

Total charge on ligand                               =	+0.000 e
REMARK  1 active torsions:
REMARK  status: ('A' for Active; 'I' for Inactive)
REMARK    1  A    between atoms: C_1  and  C_7 


Number of Rotatable Bonds in Small Molecule =	1 torsions
Number of atoms in ligand:  10

Number of non-hydrogen atoms in ligand:  10

Number of vibrational degrees of freedom of ligand:  24


Number of torsional degrees of freedom = 1
Estimated loss of torsional free energy upon binding = +0.2983 kcal/mol


DPF> about -0.0001 0.0001 -0.0002         # small molecule center

Small molecule center of rotation =	(-0.000, +0.000, -0.000)

DPF> tran0 random                         # initial coordinates/A or random

Initial translation =			(38.862, 40.745, 7.976) Angstroms
DPF> quaternion0 random                   # initial orientation

Each run will begin with a new, random initial orientation.
Initial quaternion,  (x,y,z,w) =	( -0.564, -0.196, -0.347, -0.723 ),
DPF> dihe0 random                         # initial dihedrals (relative) or random

DPF> torsdof 1                            # torsional degrees of freedom

Number of torsional degrees of freedom = 1
Free energy coefficient for torsional degrees of freedom = 0.2983, the factory default value.

Estimated loss of torsional free energy upon binding = +0.2983 kcal/mol

DPF> rmstol 2.0                           # cluster_tolerance/A

Maximum RMS tolerance for conformational cluster analysis = 2.00 Angstroms
DPF> extnrg 1000.0                        # external grid energy

External grid energy (beyond grid map walls) = 1000.00

DPF> e0max 0.0 10000                      # max initial energy; max number of retries

Using user-specified maximum number of retries for simanneal initialization, 10000 retries.
If the simanneal initial energy is greater than e0max, 0.000,
then a new, random initial state will be created.

DPF> ga_pop_size 150                      # number of individuals in population

A population of 150 individuals will be used
DPF> ga_num_evals 2500000                 # maximum number of energy evaluations

There will be at most 2500000 function evaluations used.
DPF> ga_num_generations 27000             # maximum number of generations

The GA will run for at most 27000 generations.
DPF> ga_elitism 1                         # number of top individuals to survive to next generation

The 1 best will be preserved each GA generation.
DPF> ga_mutation_rate 0.02                # rate of gene mutation

The mutation rate is 0.020000.
DPF> ga_crossover_rate 0.8                # rate of crossover

The crossover rate is 0.800000.
DPF> ga_window_size 10                    # 

The GA's selection window is 10 generations.
DPF> ga_cauchy_alpha 0.0                  # Alpha parameter of Cauchy distribution

The alpha parameter (for the Cauchy distribution) is being set to 0.000000.
DPF> ga_cauchy_beta 1.0                   # Beta parameter Cauchy distribution

The beta parameter (for the Cauchy distribution) is being set to 1.000000.
DPF> set_ga                               # set the above parameters for GA or LGA

DPF> sw_max_its 300                       # iterations of Solis & Wets local search

Solis & Wets algorithms will perform at most 300 iterations.
DPF> sw_max_succ 4                        # consecutive successes before changing rho

Solis & Wets algorithms expand rho every 4 in a row successes.
DPF> sw_max_fail 4                        # consecutive failures before changing rho

Solis & Wets algorithms contract rho every 4 in a row failures.
DPF> sw_rho 1.0                           # size of local search space to sample

rho is set to 1.000000.
DPF> sw_lb_rho 0.01                       # lower bound on rho

rho will never get smaller than 0.010000.
DPF> ls_search_freq 0.06                  # probability of performing local search on individual

Local search will be performed with frequency 0.060000.
DPF> set_psw1                             # set the above pseudo-Solis & Wets parameters

Creating a new Local Search object using the pseudo-Solis-Wets algorithm (pSW1) with the current settings.

DPF> unbound_model extended               # state of unbound ligand

/usr/bin/autodock4: WARNING: Using autodock4.0 unbound extended model in autodock4.2!
Computing the energy of the unbound state of the ligand,
given the torsion tree defined in the ligand file.


	BEGINNING COMPUTATION OF UNBOUND EXTENDED STATE USING LGA
	_________________________________________________________


Date:	Thu May 18 14:32:16 2023
Beginning LAMARCKIAN GENETIC ALGORITHM (LGA), with a maximum of 1000000 energy evaluations.

Final-Value: -44.102

Finished Lamarckian Genetic Algorithm (LGA)
2:32 19" p.m., 05/18/2023

Total number of Energy Evaluations: 1000186
Total number of Generations:        1517


		Ligand Intramolecular Energy Analysis
		=====================================

Non-bond  Atom1-Atom2  Distance   Total        Elec     vdW        Hb     Desolv     Sol_fn   Type Dielectric
________  ___________  ________   ______  _________  ________ ________  ________   ________   ____ __________
      1       4-9       4.8802   -0.0195    +0.0006   -0.0165   +0.0000   -0.0036    +0.0528   1    24.009
      2       4-10      4.4408   -0.0281    +0.0002   -0.0235   +0.0000   -0.0048    +0.0618   1    21.240
      3       5-9       5.3998   -0.0130    -0.0012   -0.0098   +0.0000   -0.0021    +0.0429   1    27.410
      4       5-10      4.8878   -0.0199    -0.0005   -0.0164   +0.0000   -0.0031    +0.0526   1    24.050
      5       6-9       4.9027   -0.0202    -0.0004   -0.0161   +0.0000   -0.0037    +0.0523   1    24.153
      6       6-10      4.3701   -0.0296    -0.0002   -0.0243   +0.0000   -0.0052    +0.0633   1    20.803
      7       7-9       6.8678   -0.0034    +0.0003   -0.0024   +0.0000   -0.0014    +0.0214   1    37.392
      8       7-10      6.3529   -0.0058    +0.0001   -0.0038   +0.0000   -0.0021    +0.0279   1    33.861
                                ________   ________  ________  ________  ________
Total                            -0.1395    -0.0010   -0.1127    +0.0000   -0.0259
                                ________  ________  ________  ________ ________
                                   Total       Elec       vdW        Hb    Desolv


	Per-atom Intramolecular Energy Analysis
	=======================================

Atom Type   Total     Elec       vdW        Hb     Desolv 
____ ___  ________  ________  ________  ________  ________
   1  C    +0.0000   +0.0000   +0.0000   +0.0000   +0.0000
   2  C    +0.0000   +0.0000   +0.0000   +0.0000   +0.0000
   3  C    +0.0000   +0.0000   +0.0000   +0.0000   +0.0000
   4  C    -0.0238   +0.0004   -0.0200   +0.0000   -0.0042
   5  C    -0.0165   -0.0008   -0.0131   +0.0000   -0.0026
   6  C    -0.0249   -0.0003   -0.0202   +0.0000   -0.0045
   7  C    -0.0046   +0.0002   -0.0031   +0.0000   -0.0017
   8  C    +0.0000   +0.0000   +0.0000   +0.0000   +0.0000
   9  C    -0.0281   -0.0003   -0.0224   +0.0000   -0.0054
  10  C    -0.0417   -0.0001   -0.0340   +0.0000   -0.0076


Total Intramolecular Interaction Energy   = -0.140 kcal/mol


The internal energy of the unbound extended state was computed to be -0.140 kcal/mol

NOTE:   The AutoDock internal energy of the "extended" state was negative.

NOTE:   The unbound state was set to the "extended" state.



The internal energy of the unbound state was set to -0.140 kcal/mol



	FINAL UNBOUND STATE
	___________________


Detailed state:  trans 3.210 46.935 0.989 quatxyzw 0.046893 0.905674 0.420899 0.020023 center -0.000 0.000 -0.000 ntor 1 4.5667
State:	  3.210  46.935   0.989   0.047  0.906  0.421 177.705      4.57

UNBOUND: MODEL        0
UNBOUND: USER    Run = 0
UNBOUND: USER    DPF = limonene.dpf
UNBOUND: USER  
UNBOUND: USER    (1) Final Intermolecular Energy     =   +0.00 kcal/mol
UNBOUND: USER        vdW + Hbond + desolv Energy     =   +0.00 kcal/mol
UNBOUND: USER        Electrostatic Energy            =   +0.00 kcal/mol
UNBOUND: USER    (2) Final Total Internal Energy     =   -0.14 kcal/mol
UNBOUND: USER    (3) Torsional Free Energy           =   +0.30 kcal/mol
UNBOUND: USER    (4) Unbound System's Energy         =   -0.14 kcal/mol
UNBOUND: USER    
UNBOUND: USER    
UNBOUND: USER    NEWDPF move limonene.pdbqt
UNBOUND: USER    NEWDPF about -0.000100 0.000100 -0.000200
UNBOUND: USER    NEWDPF tran0 3.209690 46.934585 0.988781
UNBOUND: USER    NEWDPF quaternion0 0.046893 0.905674 0.420899 0.020023
UNBOUND: USER    NEWDPF axisangle0 0.046903 0.905855 0.420983 177.705372
UNBOUND: USER    NEWDPF quat0 0.046903 0.905855 0.420983 177.705372
UNBOUND: USER    NEWDPF dihe0 4.57 
UNBOUND: USER  keepresnum = 1 
UNBOUND: USER  
UNBOUND: REMARK  1 active torsions:
UNBOUND: REMARK  status: ('A' for Active; 'I' for Inactive)
UNBOUND: REMARK    1  A    between atoms: C_1  and  C_7 
UNBOUND: USER                              x       y       z     vdW  Elec       q    Type
UNBOUND: USER                           _______ _______ _______ _____ _____    ______ ____
UNBOUND: ROOT
UNBOUND: ATOM      1  C   UNK     0       2.489  46.676   1.246 +0.00 +0.00    +0.017 C 
UNBOUND: ATOM      2  C   UNK     0       3.046  46.433  -0.155 +0.00 +0.00    +0.013 C 
UNBOUND: ATOM      3  C   UNK     0       3.302  47.747   1.980 +0.00 +0.00    +0.036 C 
UNBOUND: ATOM      4  C   UNK     0       4.511  45.991  -0.098 +0.00 +0.00    +0.034 C 
UNBOUND: ATOM      5  C   UNK     0       5.342  46.784   0.880 +0.00 +0.00    -0.087 C 
UNBOUND: ATOM      6  C   UNK     0       4.784  47.586   1.803 +0.00 +0.00    -0.024 C 
UNBOUND: ATOM      7  C   UNK     0       6.829  46.624   0.763 +0.00 +0.00    +0.043 C 
UNBOUND: ENDROOT
UNBOUND: BRANCH   1   8
UNBOUND: ATOM      8  C   UNK     0       1.055  47.096   1.149 +0.00 +0.00    -0.089 C 
UNBOUND: ATOM      9  C   UNK     0       0.067  46.254   1.901 +0.00 +0.00    +0.043 C 
UNBOUND: ATOM     10  C   UNK     0       0.675  48.164   0.432 +0.00 +0.00    +0.014 C 
UNBOUND: ENDBRANCH   1   8
UNBOUND: TORSDOF 1
UNBOUND: TER
UNBOUND: ENDMDL
________________________________________________________________________________

DPF> ga_run 10                            # do this many hybrid GA-LS runs

centering ligand on specified point: -0.000 0.000 -0.000
Furthest true ligand atom from "about" center is 3.640 Angstroms (maxrad).
Number of requested GA dockings = 10 runs
Unbound model to be used is 'extended' [AutoDock 4.0 default].

	BEGINNING GENETIC ALGORITHM DOCKING 1 of 10
Run: 1 Seed: 1222685770 217168409 [ Run 1 of 10 GA/GALS ]
Beginning LAMARCKIAN GENETIC ALGORITHM (LGA), with a maximum of 2500000 energy evaluations.

Final-Value: -6.505


	FINAL GENETIC ALGORITHM DOCKED STATE
	_______________________________________________


Detailed state:  trans -20.377 -1.666 10.777 quatxyzw 0.118033 0.518178 0.209518 0.820769 center -0.000 0.000 -0.000 ntor 1 42.0725
State:	-20.377  -1.666  10.777   0.207  0.907  0.367 69.676     42.07

DOCKED: MODEL        1
DOCKED: USER    Run = 1
DOCKED: USER    DPF = limonene.dpf
DOCKED: USER  
DOCKED: USER    Estimated Free Energy of Binding    =   -6.07 kcal/mol  [=(1)+(2)+(3)-(4)]
DOCKED: USER    Estimated Inhibition Constant, Ki   =   35.69 uM (micromolar)  [Temperature = 298.15 K]
DOCKED: USER    
DOCKED: USER    (1) Final Intermolecular Energy     =   -6.37 kcal/mol
DOCKED: USER        vdW + Hbond + desolv Energy     =   -6.37 kcal/mol
DOCKED: USER        Electrostatic Energy            =   -0.00 kcal/mol
DOCKED: USER    (2) Final Total Internal Energy     =   -0.14 kcal/mol
DOCKED: USER    (3) Torsional Free Energy           =   +0.30 kcal/mol
DOCKED: USER    (4) Unbound System's Energy         =   -0.14 kcal/mol
DOCKED: USER    
DOCKED: USER    
DOCKED: USER    NEWDPF move limonene.pdbqt
DOCKED: USER    NEWDPF about -0.000100 0.000100 -0.000200
DOCKED: USER    NEWDPF tran0 -20.376684 -1.665542 10.776638
DOCKED: USER    NEWDPF quaternion0 0.118033 0.518178 0.209518 0.820769
DOCKED: USER    NEWDPF axisangle0 0.206619 0.907079 0.366765 69.676343
DOCKED: USER    NEWDPF quat0 0.206619 0.907079 0.366765 69.676343
DOCKED: USER    NEWDPF dihe0 42.07 
DOCKED: USER  keepresnum = 1 
DOCKED: USER  
DOCKED: REMARK  1 active torsions:
DOCKED: REMARK  status: ('A' for Active; 'I' for Inactive)
DOCKED: REMARK    1  A    between atoms: C_1  and  C_7 
DOCKED: USER                              x       y       z     vdW  Elec       q    Type
DOCKED: USER                           _______ _______ _______ _____ _____    ______ ____
DOCKED: ROOT
DOCKED: ATOM      1  C   UNK     0     -19.834  -2.013  11.264 -0.69 +0.00    +0.017 C 
DOCKED: ATOM      2  C   UNK     0     -21.207  -2.598  10.940 -0.70 +0.00    +0.013 C 
DOCKED: ATOM      3  C   UNK     0     -19.750  -0.546  10.833 -0.68 +0.00    +0.036 C 
DOCKED: ATOM      4  C   UNK     0     -21.510  -2.502   9.442 -0.68 +0.00    +0.034 C 
DOCKED: ATOM      5  C   UNK     0     -21.132  -1.173   8.835 -0.58 -0.00    -0.087 C 
DOCKED: ATOM      6  C   UNK     0     -20.349  -0.293   9.481 -0.66 -0.00    -0.024 C 
DOCKED: ATOM      7  C   UNK     0     -21.679  -0.894   7.467 -0.55 +0.00    +0.043 C 
DOCKED: ENDROOT
DOCKED: BRANCH   1   8
DOCKED: ATOM      8  C   UNK     0     -19.571  -2.135  12.733 -0.61 -0.00    -0.089 C 
DOCKED: ATOM      9  C   UNK     0     -18.136  -2.035  13.159 -0.67 +0.00    +0.043 C 
DOCKED: ATOM     10  C   UNK     0     -20.562  -2.322  13.618 -0.57 +0.00    +0.014 C 
DOCKED: ENDBRANCH   1   8
DOCKED: TORSDOF 1
DOCKED: TER
DOCKED: ENDMDL
________________________________________________________________________________


	BEGINNING GENETIC ALGORITHM DOCKING 2 of 10
Run: 2 Seed: 1853938263 1811623367 [ Run 2 of 10 GA/GALS ]
Beginning LAMARCKIAN GENETIC ALGORITHM (LGA), with a maximum of 2500000 energy evaluations.

Final-Value: -6.409


	FINAL GENETIC ALGORITHM DOCKED STATE
	_______________________________________________


Detailed state:  trans 30.645 -17.253 11.369 quatxyzw -0.127179 0.694468 0.631852 -0.319848 center -0.000 0.000 -0.000 ntor 1 58.5871
State:	 30.645 -17.253  11.369  -0.134  0.733  0.667 -142.692     58.59

DOCKED: MODEL        2
DOCKED: USER    Run = 2
DOCKED: USER    DPF = limonene.dpf
DOCKED: USER  
DOCKED: USER    Estimated Free Energy of Binding    =   -5.97 kcal/mol  [=(1)+(2)+(3)-(4)]
DOCKED: USER    Estimated Inhibition Constant, Ki   =   42.01 uM (micromolar)  [Temperature = 298.15 K]
DOCKED: USER    
DOCKED: USER    (1) Final Intermolecular Energy     =   -6.27 kcal/mol
DOCKED: USER        vdW + Hbond + desolv Energy     =   -6.27 kcal/mol
DOCKED: USER        Electrostatic Energy            =   -0.00 kcal/mol
DOCKED: USER    (2) Final Total Internal Energy     =   -0.14 kcal/mol
DOCKED: USER    (3) Torsional Free Energy           =   +0.30 kcal/mol
DOCKED: USER    (4) Unbound System's Energy         =   -0.14 kcal/mol
DOCKED: USER    
DOCKED: USER    
DOCKED: USER    NEWDPF move limonene.pdbqt
DOCKED: USER    NEWDPF about -0.000100 0.000100 -0.000200
DOCKED: USER    NEWDPF tran0 30.644976 -17.253125 11.368584
DOCKED: USER    NEWDPF quaternion0 -0.127179 0.694468 0.631852 -0.319848
DOCKED: USER    NEWDPF axisangle0 -0.134230 0.732972 0.666884 -142.692484
DOCKED: USER    NEWDPF quat0 -0.134230 0.732972 0.666884 -142.692484
DOCKED: USER    NEWDPF dihe0 58.59 
DOCKED: USER  keepresnum = 1 
DOCKED: USER  
DOCKED: REMARK  1 active torsions:
DOCKED: REMARK  status: ('A' for Active; 'I' for Inactive)
DOCKED: REMARK    1  A    between atoms: C_1  and  C_7 
DOCKED: USER                              x       y       z     vdW  Elec       q    Type
DOCKED: USER                           _______ _______ _______ _____ _____    ______ ____
DOCKED: ROOT
DOCKED: ATOM      1  C   UNK     0      30.018 -17.448  10.898 -0.71 +0.00    +0.017 C 
DOCKED: ATOM      2  C   UNK     0      31.415 -17.109  10.382 -0.72 +0.00    +0.013 C 
DOCKED: ATOM      3  C   UNK     0      29.865 -17.044  12.368 -0.71 +0.00    +0.036 C 
DOCKED: ATOM      4  C   UNK     0      32.494 -17.817  11.206 -0.67 +0.00    +0.034 C 
DOCKED: ATOM      5  C   UNK     0      32.245 -17.770  12.693 -0.62 -0.00    -0.087 C 
DOCKED: ATOM      6  C   UNK     0      31.058 -17.404  13.205 -0.72 -0.00    -0.024 C 
DOCKED: ATOM      7  C   UNK     0      33.400 -18.158  13.568 -0.52 +0.00    +0.043 C 
DOCKED: ENDROOT
DOCKED: BRANCH   1   8
DOCKED: ATOM      8  C   UNK     0      28.992 -16.746  10.062 -0.54 -0.00    -0.089 C 
DOCKED: ATOM      9  C   UNK     0      27.557 -17.028  10.402 -0.56 +0.00    +0.043 C 
DOCKED: ATOM     10  C   UNK     0      29.334 -15.913   9.069 -0.49 +0.00    +0.014 C 
DOCKED: ENDBRANCH   1   8
DOCKED: TORSDOF 1
DOCKED: TER
DOCKED: ENDMDL
________________________________________________________________________________


	BEGINNING GENETIC ALGORITHM DOCKING 3 of 10
Run: 3 Seed: 943580265 1496371782 [ Run 3 of 10 GA/GALS ]
Beginning LAMARCKIAN GENETIC ALGORITHM (LGA), with a maximum of 2500000 energy evaluations.

Final-Value: -6.510


	FINAL GENETIC ALGORITHM DOCKED STATE
	_______________________________________________


Detailed state:  trans -20.293 -1.642 10.755 quatxyzw -0.155781 -0.502773 -0.197263 -0.827066 center -0.000 0.000 -0.000 ntor 1 -144.1227
State:	-20.293  -1.642  10.755  -0.277 -0.894 -0.351 -68.403   -144.12

DOCKED: MODEL        3
DOCKED: USER    Run = 3
DOCKED: USER    DPF = limonene.dpf
DOCKED: USER  
DOCKED: USER    Estimated Free Energy of Binding    =   -6.07 kcal/mol  [=(1)+(2)+(3)-(4)]
DOCKED: USER    Estimated Inhibition Constant, Ki   =   35.41 uM (micromolar)  [Temperature = 298.15 K]
DOCKED: USER    
DOCKED: USER    (1) Final Intermolecular Energy     =   -6.37 kcal/mol
DOCKED: USER        vdW + Hbond + desolv Energy     =   -6.37 kcal/mol
DOCKED: USER        Electrostatic Energy            =   -0.00 kcal/mol
DOCKED: USER    (2) Final Total Internal Energy     =   -0.14 kcal/mol
DOCKED: USER    (3) Torsional Free Energy           =   +0.30 kcal/mol
DOCKED: USER    (4) Unbound System's Energy         =   -0.14 kcal/mol
DOCKED: USER    
DOCKED: USER    
DOCKED: USER    NEWDPF move limonene.pdbqt
DOCKED: USER    NEWDPF about -0.000100 0.000100 -0.000200
DOCKED: USER    NEWDPF tran0 -20.292946 -1.641686 10.755439
DOCKED: USER    NEWDPF quaternion0 -0.155781 -0.502773 -0.197263 -0.827066
DOCKED: USER    NEWDPF axisangle0 -0.277139 -0.894448 -0.350937 -68.402977
DOCKED: USER    NEWDPF quat0 -0.277139 -0.894448 -0.350937 -68.402977
DOCKED: USER    NEWDPF dihe0 -144.12 
DOCKED: USER  keepresnum = 1 
DOCKED: USER  
DOCKED: REMARK  1 active torsions:
DOCKED: REMARK  status: ('A' for Active; 'I' for Inactive)
DOCKED: REMARK    1  A    between atoms: C_1  and  C_7 
DOCKED: USER                              x       y       z     vdW  Elec       q    Type
DOCKED: USER                           _______ _______ _______ _____ _____    ______ ____
DOCKED: ROOT
DOCKED: ATOM      1  C   UNK     0     -19.732  -1.968  11.237 -0.68 +0.00    +0.017 C 
DOCKED: ATOM      2  C   UNK     0     -21.131  -2.543  11.022 -0.69 +0.00    +0.013 C 
DOCKED: ATOM      3  C   UNK     0     -19.643  -0.535  10.705 -0.67 +0.00    +0.036 C 
DOCKED: ATOM      4  C   UNK     0     -21.508  -2.540   9.538 -0.68 +0.00    +0.034 C 
DOCKED: ATOM      5  C   UNK     0     -21.137  -1.263   8.825 -0.58 -0.00    -0.087 C 
DOCKED: ATOM      6  C   UNK     0     -20.306  -0.358   9.371 -0.65 -0.00    -0.024 C 
DOCKED: ATOM      7  C   UNK     0     -21.749  -1.063   7.470 -0.54 +0.00    +0.043 C 
DOCKED: ENDROOT
DOCKED: BRANCH   1   8
DOCKED: ATOM      8  C   UNK     0     -19.397  -1.998  12.696 -0.63 -0.00    -0.089 C 
DOCKED: ATOM      9  C   UNK     0     -20.562  -1.977  13.643 -0.55 +0.00    +0.043 C 
DOCKED: ATOM     10  C   UNK     0     -18.130  -2.044  13.133 -0.69 +0.00    +0.014 C 
DOCKED: ENDBRANCH   1   8
DOCKED: TORSDOF 1
DOCKED: TER
DOCKED: ENDMDL
________________________________________________________________________________


	BEGINNING GENETIC ALGORITHM DOCKING 4 of 10
Run: 4 Seed: 1382270944 1226622706 [ Run 4 of 10 GA/GALS ]
Beginning LAMARCKIAN GENETIC ALGORITHM (LGA), with a maximum of 2500000 energy evaluations.

Final-Value: -6.507


	FINAL GENETIC ALGORITHM DOCKED STATE
	_______________________________________________


Detailed state:  trans -20.325 -1.666 10.783 quatxyzw -0.148606 -0.510514 -0.198293 -0.823390 center -0.000 0.000 -0.000 ntor 1 -141.9279
State:	-20.325  -1.666  10.783  -0.262 -0.900 -0.349 -69.149   -141.93

DOCKED: MODEL        4
DOCKED: USER    Run = 4
DOCKED: USER    DPF = limonene.dpf
DOCKED: USER  
DOCKED: USER    Estimated Free Energy of Binding    =   -6.07 kcal/mol  [=(1)+(2)+(3)-(4)]
DOCKED: USER    Estimated Inhibition Constant, Ki   =   35.61 uM (micromolar)  [Temperature = 298.15 K]
DOCKED: USER    
DOCKED: USER    (1) Final Intermolecular Energy     =   -6.36 kcal/mol
DOCKED: USER        vdW + Hbond + desolv Energy     =   -6.36 kcal/mol
DOCKED: USER        Electrostatic Energy            =   -0.00 kcal/mol
DOCKED: USER    (2) Final Total Internal Energy     =   -0.14 kcal/mol
DOCKED: USER    (3) Torsional Free Energy           =   +0.30 kcal/mol
DOCKED: USER    (4) Unbound System's Energy         =   -0.14 kcal/mol
DOCKED: USER    
DOCKED: USER    
DOCKED: USER    NEWDPF move limonene.pdbqt
DOCKED: USER    NEWDPF about -0.000100 0.000100 -0.000200
DOCKED: USER    NEWDPF tran0 -20.325305 -1.665921 10.782678
DOCKED: USER    NEWDPF quaternion0 -0.148606 -0.510514 -0.198293 -0.823390
DOCKED: USER    NEWDPF axisangle0 -0.261873 -0.899623 -0.349430 -69.148710
DOCKED: USER    NEWDPF quat0 -0.261873 -0.899623 -0.349430 -69.148710
DOCKED: USER    NEWDPF dihe0 -141.93 
DOCKED: USER  keepresnum = 1 
DOCKED: USER  
DOCKED: REMARK  1 active torsions:
DOCKED: REMARK  status: ('A' for Active; 'I' for Inactive)
DOCKED: REMARK    1  A    between atoms: C_1  and  C_7 
DOCKED: USER                              x       y       z     vdW  Elec       q    Type
DOCKED: USER                           _______ _______ _______ _____ _____    ______ ____
DOCKED: ROOT
DOCKED: ATOM      1  C   UNK     0     -19.772  -1.993  11.272 -0.69 +0.00    +0.017 C 
DOCKED: ATOM      2  C   UNK     0     -21.162  -2.575  11.025 -0.69 +0.00    +0.013 C 
DOCKED: ATOM      3  C   UNK     0     -19.682  -0.554  10.755 -0.67 +0.00    +0.036 C 
DOCKED: ATOM      4  C   UNK     0     -21.510  -2.561   9.534 -0.68 +0.00    +0.034 C 
DOCKED: ATOM      5  C   UNK     0     -21.134  -1.275   8.840 -0.58 -0.00    -0.087 C 
DOCKED: ATOM      6  C   UNK     0     -20.320  -0.371   9.409 -0.65 -0.00    -0.024 C 
DOCKED: ATOM      7  C   UNK     0     -21.720  -1.067   7.474 -0.55 +0.00    +0.043 C 
DOCKED: ENDROOT
DOCKED: BRANCH   1   8
DOCKED: ATOM      8  C   UNK     0     -19.466  -2.034  12.738 -0.62 -0.00    -0.089 C 
DOCKED: ATOM      9  C   UNK     0     -20.649  -2.079  13.660 -0.54 +0.00    +0.043 C 
DOCKED: ATOM     10  C   UNK     0     -18.207  -2.031  13.200 -0.69 +0.00    +0.014 C 
DOCKED: ENDBRANCH   1   8
DOCKED: TORSDOF 1
DOCKED: TER
DOCKED: ENDMDL
________________________________________________________________________________


	BEGINNING GENETIC ALGORITHM DOCKING 5 of 10
Run: 5 Seed: 2054415117 227888478 [ Run 5 of 10 GA/GALS ]
Beginning LAMARCKIAN GENETIC ALGORITHM (LGA), with a maximum of 2500000 energy evaluations.

Final-Value: -6.510


	FINAL GENETIC ALGORITHM DOCKED STATE
	_______________________________________________


Detailed state:  trans -20.351 -1.650 10.809 quatxyzw -0.156607 -0.519718 -0.187487 -0.818667 center -0.000 0.000 -0.000 ntor 1 22.0560
State:	-20.351  -1.650  10.809  -0.273 -0.905 -0.326 -70.097     22.06

DOCKED: MODEL        5
DOCKED: USER    Run = 5
DOCKED: USER    DPF = limonene.dpf
DOCKED: USER  
DOCKED: USER    Estimated Free Energy of Binding    =   -6.07 kcal/mol  [=(1)+(2)+(3)-(4)]
DOCKED: USER    Estimated Inhibition Constant, Ki   =   35.43 uM (micromolar)  [Temperature = 298.15 K]
DOCKED: USER    
DOCKED: USER    (1) Final Intermolecular Energy     =   -6.37 kcal/mol
DOCKED: USER        vdW + Hbond + desolv Energy     =   -6.37 kcal/mol
DOCKED: USER        Electrostatic Energy            =   -0.00 kcal/mol
DOCKED: USER    (2) Final Total Internal Energy     =   -0.14 kcal/mol
DOCKED: USER    (3) Torsional Free Energy           =   +0.30 kcal/mol
DOCKED: USER    (4) Unbound System's Energy         =   -0.14 kcal/mol
DOCKED: USER    
DOCKED: USER    
DOCKED: USER    NEWDPF move limonene.pdbqt
DOCKED: USER    NEWDPF about -0.000100 0.000100 -0.000200
DOCKED: USER    NEWDPF tran0 -20.351128 -1.650484 10.808732
DOCKED: USER    NEWDPF quaternion0 -0.156607 -0.519718 -0.187487 -0.818667
DOCKED: USER    NEWDPF axisangle0 -0.272708 -0.905009 -0.326480 -70.096772
DOCKED: USER    NEWDPF quat0 -0.272708 -0.905009 -0.326480 -70.096772
DOCKED: USER    NEWDPF dihe0 22.06 
DOCKED: USER  keepresnum = 1 
DOCKED: USER  
DOCKED: REMARK  1 active torsions:
DOCKED: REMARK  status: ('A' for Active; 'I' for Inactive)
DOCKED: REMARK    1  A    between atoms: C_1  and  C_7 
DOCKED: USER                              x       y       z     vdW  Elec       q    Type
DOCKED: USER                           _______ _______ _______ _____ _____    ______ ____
DOCKED: ROOT
DOCKED: ATOM      1  C   UNK     0     -19.801  -1.957  11.315 -0.69 +0.00    +0.017 C 
DOCKED: ATOM      2  C   UNK     0     -21.182  -2.561  11.066 -0.69 +0.00    +0.013 C 
DOCKED: ATOM      3  C   UNK     0     -19.719  -0.533  10.757 -0.67 +0.00    +0.036 C 
DOCKED: ATOM      4  C   UNK     0     -21.509  -2.594   9.571 -0.68 +0.00    +0.034 C 
DOCKED: ATOM      5  C   UNK     0     -21.137  -1.326   8.844 -0.58 -0.00    -0.087 C 
DOCKED: ATOM      6  C   UNK     0     -20.340  -0.396   9.398 -0.65 -0.00    -0.024 C 
DOCKED: ATOM      7  C   UNK     0     -21.706  -1.164   7.466 -0.55 +0.00    +0.043 C 
DOCKED: ENDROOT
DOCKED: BRANCH   1   8
DOCKED: ATOM      8  C   UNK     0     -19.515  -1.952  12.785 -0.62 -0.00    -0.089 C 
DOCKED: ATOM      9  C   UNK     0     -18.109  -2.288  13.186 -0.66 +0.00    +0.043 C 
DOCKED: ATOM     10  C   UNK     0     -20.460  -1.661  13.692 -0.57 +0.00    +0.014 C 
DOCKED: ENDBRANCH   1   8
DOCKED: TORSDOF 1
DOCKED: TER
DOCKED: ENDMDL
________________________________________________________________________________


	BEGINNING GENETIC ALGORITHM DOCKING 6 of 10
Run: 6 Seed: 1040918854 568999830 [ Run 6 of 10 GA/GALS ]
Beginning LAMARCKIAN GENETIC ALGORITHM (LGA), with a maximum of 2500000 energy evaluations.

Final-Value: -6.507


	FINAL GENETIC ALGORITHM DOCKED STATE
	_______________________________________________


Detailed state:  trans -20.290 -1.643 10.747 quatxyzw 0.154486 0.501561 0.200022 0.827383 center -0.000 0.000 -0.000 ntor 1 -156.8615
State:	-20.290  -1.643  10.747   0.275  0.893  0.356 68.338   -156.86

DOCKED: MODEL        6
DOCKED: USER    Run = 6
DOCKED: USER    DPF = limonene.dpf
DOCKED: USER  
DOCKED: USER    Estimated Free Energy of Binding    =   -6.07 kcal/mol  [=(1)+(2)+(3)-(4)]
DOCKED: USER    Estimated Inhibition Constant, Ki   =   35.61 uM (micromolar)  [Temperature = 298.15 K]
DOCKED: USER    
DOCKED: USER    (1) Final Intermolecular Energy     =   -6.36 kcal/mol
DOCKED: USER        vdW + Hbond + desolv Energy     =   -6.36 kcal/mol
DOCKED: USER        Electrostatic Energy            =   -0.00 kcal/mol
DOCKED: USER    (2) Final Total Internal Energy     =   -0.14 kcal/mol
DOCKED: USER    (3) Torsional Free Energy           =   +0.30 kcal/mol
DOCKED: USER    (4) Unbound System's Energy         =   -0.14 kcal/mol
DOCKED: USER    
DOCKED: USER    
DOCKED: USER    NEWDPF move limonene.pdbqt
DOCKED: USER    NEWDPF about -0.000100 0.000100 -0.000200
DOCKED: USER    NEWDPF tran0 -20.290499 -1.643291 10.747064
DOCKED: USER    NEWDPF quaternion0 0.154486 0.501561 0.200022 0.827383
DOCKED: USER    NEWDPF axisangle0 0.275063 0.893031 0.356139 68.338380
DOCKED: USER    NEWDPF quat0 0.275063 0.893031 0.356139 68.338380
DOCKED: USER    NEWDPF dihe0 -156.86 
DOCKED: USER  keepresnum = 1 
DOCKED: USER  
DOCKED: REMARK  1 active torsions:
DOCKED: REMARK  status: ('A' for Active; 'I' for Inactive)
DOCKED: REMARK    1  A    between atoms: C_1  and  C_7 
DOCKED: USER                              x       y       z     vdW  Elec       q    Type
DOCKED: USER                           _______ _______ _______ _____ _____    ______ ____
DOCKED: ROOT
DOCKED: ATOM      1  C   UNK     0     -19.731  -1.974  11.226 -0.68 +0.00    +0.017 C 
DOCKED: ATOM      2  C   UNK     0     -21.131  -2.543  11.010 -0.69 +0.00    +0.013 C 
DOCKED: ATOM      3  C   UNK     0     -19.637  -0.538  10.702 -0.67 +0.00    +0.036 C 
DOCKED: ATOM      4  C   UNK     0     -21.510  -2.530   9.526 -0.68 +0.00    +0.034 C 
DOCKED: ATOM      5  C   UNK     0     -21.135  -1.251   8.820 -0.58 -0.00    -0.087 C 
DOCKED: ATOM      6  C   UNK     0     -20.301  -0.352   9.370 -0.65 -0.00    -0.024 C 
DOCKED: ATOM      7  C   UNK     0     -21.747  -1.041   7.466 -0.54 +0.00    +0.043 C 
DOCKED: ENDROOT
DOCKED: BRANCH   1   8
DOCKED: ATOM      8  C   UNK     0     -19.394  -2.014  12.685 -0.63 -0.00    -0.089 C 
DOCKED: ATOM      9  C   UNK     0     -20.515  -1.697  13.631 -0.55 +0.00    +0.043 C 
DOCKED: ATOM     10  C   UNK     0     -18.163  -2.316  13.122 -0.68 +0.00    +0.014 C 
DOCKED: ENDBRANCH   1   8
DOCKED: TORSDOF 1
DOCKED: TER
DOCKED: ENDMDL
________________________________________________________________________________


	BEGINNING GENETIC ALGORITHM DOCKING 7 of 10
Run: 7 Seed: 756726003 1204708711 [ Run 7 of 10 GA/GALS ]
Beginning LAMARCKIAN GENETIC ALGORITHM (LGA), with a maximum of 2500000 energy evaluations.

Final-Value: -6.490


	FINAL GENETIC ALGORITHM DOCKED STATE
	_______________________________________________


Detailed state:  trans -20.333 -1.620 10.857 quatxyzw 0.406042 0.728891 -0.262458 -0.484731 center -0.000 0.000 -0.000 ntor 1 -106.9793
State:	-20.333  -1.620  10.857   0.464  0.833 -0.300 -122.010   -106.98

DOCKED: MODEL        7
DOCKED: USER    Run = 7
DOCKED: USER    DPF = limonene.dpf
DOCKED: USER  
DOCKED: USER    Estimated Free Energy of Binding    =   -6.05 kcal/mol  [=(1)+(2)+(3)-(4)]
DOCKED: USER    Estimated Inhibition Constant, Ki   =   36.60 uM (micromolar)  [Temperature = 298.15 K]
DOCKED: USER    
DOCKED: USER    (1) Final Intermolecular Energy     =   -6.35 kcal/mol
DOCKED: USER        vdW + Hbond + desolv Energy     =   -6.35 kcal/mol
DOCKED: USER        Electrostatic Energy            =   -0.00 kcal/mol
DOCKED: USER    (2) Final Total Internal Energy     =   -0.14 kcal/mol
DOCKED: USER    (3) Torsional Free Energy           =   +0.30 kcal/mol
DOCKED: USER    (4) Unbound System's Energy         =   -0.14 kcal/mol
DOCKED: USER    
DOCKED: USER    
DOCKED: USER    NEWDPF move limonene.pdbqt
DOCKED: USER    NEWDPF about -0.000100 0.000100 -0.000200
DOCKED: USER    NEWDPF tran0 -20.333471 -1.619731 10.856960
DOCKED: USER    NEWDPF quaternion0 0.406042 0.728891 -0.262458 -0.484731
DOCKED: USER    NEWDPF axisangle0 0.464227 0.833339 -0.300067 -122.010315
DOCKED: USER    NEWDPF quat0 0.464227 0.833339 -0.300067 -122.010315
DOCKED: USER    NEWDPF dihe0 -106.98 
DOCKED: USER  keepresnum = 1 
DOCKED: USER  
DOCKED: REMARK  1 active torsions:
DOCKED: REMARK  status: ('A' for Active; 'I' for Inactive)
DOCKED: REMARK    1  A    between atoms: C_1  and  C_7 
DOCKED: USER                              x       y       z     vdW  Elec       q    Type
DOCKED: USER                           _______ _______ _______ _____ _____    ______ ____
DOCKED: ROOT
DOCKED: ATOM      1  C   UNK     0     -20.695  -1.116  10.339 -0.66 +0.00    +0.017 C 
DOCKED: ATOM      2  C   UNK     0     -21.190  -2.523  10.666 -0.70 +0.00    +0.013 C 
DOCKED: ATOM      3  C   UNK     0     -19.263  -0.909  10.843 -0.68 +0.00    +0.036 C 
DOCKED: ATOM      4  C   UNK     0     -21.153  -2.785  12.175 -0.61 +0.00    +0.034 C 
DOCKED: ATOM      5  C   UNK     0     -19.891  -2.292  12.840 -0.58 -0.00    -0.087 C 
DOCKED: ATOM      6  C   UNK     0     -19.039  -1.458  12.221 -0.71 -0.00    -0.024 C 
DOCKED: ATOM      7  C   UNK     0     -19.646  -2.787  14.235 -0.56 +0.00    +0.043 C 
DOCKED: ENDROOT
DOCKED: BRANCH   1   8
DOCKED: ATOM      8  C   UNK     0     -20.756  -0.895   8.859 -0.56 -0.00    -0.089 C 
DOCKED: ATOM      9  C   UNK     0     -21.511  -1.923   8.068 -0.63 +0.00    +0.043 C 
DOCKED: ATOM     10  C   UNK     0     -20.172   0.161   8.273 -0.66 +0.00    +0.014 C 
DOCKED: ENDBRANCH   1   8
DOCKED: TORSDOF 1
DOCKED: TER
DOCKED: ENDMDL
________________________________________________________________________________


	BEGINNING GENETIC ALGORITHM DOCKING 8 of 10
Run: 8 Seed: 484566171 578631477 [ Run 8 of 10 GA/GALS ]
Beginning LAMARCKIAN GENETIC ALGORITHM (LGA), with a maximum of 2500000 energy evaluations.

Final-Value: -6.509


	FINAL GENETIC ALGORITHM DOCKED STATE
	_______________________________________________


Detailed state:  trans -20.293 -1.655 10.746 quatxyzw -0.151984 -0.501562 -0.201782 -0.827418 center -0.000 0.000 -0.000 ntor 1 -141.2690
State:	-20.293  -1.655  10.746  -0.271 -0.893 -0.359 -68.331   -141.27

DOCKED: MODEL        8
DOCKED: USER    Run = 8
DOCKED: USER    DPF = limonene.dpf
DOCKED: USER  
DOCKED: USER    Estimated Free Energy of Binding    =   -6.07 kcal/mol  [=(1)+(2)+(3)-(4)]
DOCKED: USER    Estimated Inhibition Constant, Ki   =   35.43 uM (micromolar)  [Temperature = 298.15 K]
DOCKED: USER    
DOCKED: USER    (1) Final Intermolecular Energy     =   -6.37 kcal/mol
DOCKED: USER        vdW + Hbond + desolv Energy     =   -6.37 kcal/mol
DOCKED: USER        Electrostatic Energy            =   -0.00 kcal/mol
DOCKED: USER    (2) Final Total Internal Energy     =   -0.14 kcal/mol
DOCKED: USER    (3) Torsional Free Energy           =   +0.30 kcal/mol
DOCKED: USER    (4) Unbound System's Energy         =   -0.14 kcal/mol
DOCKED: USER    
DOCKED: USER    
DOCKED: USER    NEWDPF move limonene.pdbqt
DOCKED: USER    NEWDPF about -0.000100 0.000100 -0.000200
DOCKED: USER    NEWDPF tran0 -20.293309 -1.654617 10.745837
DOCKED: USER    NEWDPF quaternion0 -0.151984 -0.501562 -0.201782 -0.827418
DOCKED: USER    NEWDPF axisangle0 -0.270633 -0.893116 -0.359307 -68.331161
DOCKED: USER    NEWDPF quat0 -0.270633 -0.893116 -0.359307 -68.331161
DOCKED: USER    NEWDPF dihe0 -141.27 
DOCKED: USER  keepresnum = 1 
DOCKED: USER  
DOCKED: REMARK  1 active torsions:
DOCKED: REMARK  status: ('A' for Active; 'I' for Inactive)
DOCKED: REMARK    1  A    between atoms: C_1  and  C_7 
DOCKED: USER                              x       y       z     vdW  Elec       q    Type
DOCKED: USER                           _______ _______ _______ _____ _____    ______ ____
DOCKED: ROOT
DOCKED: ATOM      1  C   UNK     0     -19.734  -1.989  11.224 -0.68 +0.00    +0.017 C 
DOCKED: ATOM      2  C   UNK     0     -21.135  -2.556  11.002 -0.69 +0.00    +0.013 C 
DOCKED: ATOM      3  C   UNK     0     -19.639  -0.550  10.709 -0.67 +0.00    +0.036 C 
DOCKED: ATOM      4  C   UNK     0     -21.511  -2.534   9.518 -0.68 +0.00    +0.034 C 
DOCKED: ATOM      5  C   UNK     0     -21.135  -1.250   8.820 -0.58 -0.00    -0.087 C 
DOCKED: ATOM      6  C   UNK     0     -20.301  -0.355   9.376 -0.65 -0.00    -0.024 C 
DOCKED: ATOM      7  C   UNK     0     -21.745  -1.032   7.466 -0.54 +0.00    +0.043 C 
DOCKED: ENDROOT
DOCKED: BRANCH   1   8
DOCKED: ATOM      8  C   UNK     0     -19.400  -2.037  12.683 -0.63 -0.00    -0.089 C 
DOCKED: ATOM      9  C   UNK     0     -20.566  -2.088  13.627 -0.55 +0.00    +0.043 C 
DOCKED: ATOM     10  C   UNK     0     -18.133  -2.035  13.121 -0.69 +0.00    +0.014 C 
DOCKED: ENDBRANCH   1   8
DOCKED: TORSDOF 1
DOCKED: TER
DOCKED: ENDMDL
________________________________________________________________________________


	BEGINNING GENETIC ALGORITHM DOCKING 9 of 10
Run: 9 Seed: 1240976485 975092558 [ Run 9 of 10 GA/GALS ]
Beginning LAMARCKIAN GENETIC ALGORITHM (LGA), with a maximum of 2500000 energy evaluations.

Final-Value: -6.410


	FINAL GENETIC ALGORITHM DOCKED STATE
	_______________________________________________


Detailed state:  trans 30.627 -17.245 11.325 quatxyzw -0.122158 0.697638 0.634234 -0.310041 center -0.000 0.000 -0.000 ntor 1 60.5351
State:	 30.627 -17.245  11.325  -0.128  0.734  0.667 -143.877     60.54

DOCKED: MODEL        9
DOCKED: USER    Run = 9
DOCKED: USER    DPF = limonene.dpf
DOCKED: USER  
DOCKED: USER    Estimated Free Energy of Binding    =   -5.97 kcal/mol  [=(1)+(2)+(3)-(4)]
DOCKED: USER    Estimated Inhibition Constant, Ki   =   41.89 uM (micromolar)  [Temperature = 298.15 K]
DOCKED: USER    
DOCKED: USER    (1) Final Intermolecular Energy     =   -6.27 kcal/mol
DOCKED: USER        vdW + Hbond + desolv Energy     =   -6.27 kcal/mol
DOCKED: USER        Electrostatic Energy            =   -0.00 kcal/mol
DOCKED: USER    (2) Final Total Internal Energy     =   -0.14 kcal/mol
DOCKED: USER    (3) Torsional Free Energy           =   +0.30 kcal/mol
DOCKED: USER    (4) Unbound System's Energy         =   -0.14 kcal/mol
DOCKED: USER    
DOCKED: USER    
DOCKED: USER    NEWDPF move limonene.pdbqt
DOCKED: USER    NEWDPF about -0.000100 0.000100 -0.000200
DOCKED: USER    NEWDPF tran0 30.626611 -17.244526 11.325445
DOCKED: USER    NEWDPF quaternion0 -0.122158 0.697638 0.634234 -0.310041
DOCKED: USER    NEWDPF axisangle0 -0.128489 0.733797 0.667107 -143.876634
DOCKED: USER    NEWDPF quat0 -0.128489 0.733797 0.667107 -143.876634
DOCKED: USER    NEWDPF dihe0 60.54 
DOCKED: USER  keepresnum = 1 
DOCKED: USER  
DOCKED: REMARK  1 active torsions:
DOCKED: REMARK  status: ('A' for Active; 'I' for Inactive)
DOCKED: REMARK    1  A    between atoms: C_1  and  C_7 
DOCKED: USER                              x       y       z     vdW  Elec       q    Type
DOCKED: USER                           _______ _______ _______ _____ _____    ______ ____
DOCKED: ROOT
DOCKED: ATOM      1  C   UNK     0      29.990 -17.443  10.869 -0.71 +0.00    +0.017 C 
DOCKED: ATOM      2  C   UNK     0      31.373 -17.096  10.322 -0.72 +0.00    +0.013 C 
DOCKED: ATOM      3  C   UNK     0      29.868 -17.040  12.342 -0.71 +0.00    +0.036 C 
DOCKED: ATOM      4  C   UNK     0      32.475 -17.797  11.121 -0.67 +0.00    +0.034 C 
DOCKED: ATOM      5  C   UNK     0      32.259 -17.751  12.614 -0.63 -0.00    -0.087 C 
DOCKED: ATOM      6  C   UNK     0      31.082 -17.393  13.152 -0.73 -0.00    -0.024 C 
DOCKED: ATOM      7  C   UNK     0      33.436 -18.132  13.462 -0.53 +0.00    +0.043 C 
DOCKED: ENDROOT
DOCKED: BRANCH   1   8
DOCKED: ATOM      8  C   UNK     0      28.941 -16.748  10.057 -0.54 -0.00    -0.089 C 
DOCKED: ATOM      9  C   UNK     0      27.518 -17.003  10.458 -0.56 +0.00    +0.043 C 
DOCKED: ATOM     10  C   UNK     0      29.255 -15.943   9.031 -0.49 +0.00    +0.014 C 
DOCKED: ENDBRANCH   1   8
DOCKED: TORSDOF 1
DOCKED: TER
DOCKED: ENDMDL
________________________________________________________________________________


	BEGINNING GENETIC ALGORITHM DOCKING 10 of 10
Run: 10 Seed: 2145490448 1822121270 [ Run 10 of 10 GA/GALS ]
Beginning LAMARCKIAN GENETIC ALGORITHM (LGA), with a maximum of 2500000 energy evaluations.

Final-Value: -6.491


	FINAL GENETIC ALGORITHM DOCKED STATE
	_______________________________________________


Detailed state:  trans -20.322 -1.623 10.930 quatxyzw 0.391787 0.745256 -0.277349 -0.462789 center -0.000 0.000 -0.000 ntor 1 -115.3363
State:	-20.322  -1.623  10.930   0.442  0.841 -0.313 -124.865   -115.34

DOCKED: MODEL       10
DOCKED: USER    Run = 10
DOCKED: USER    DPF = limonene.dpf
DOCKED: USER  
DOCKED: USER    Estimated Free Energy of Binding    =   -6.05 kcal/mol  [=(1)+(2)+(3)-(4)]
DOCKED: USER    Estimated Inhibition Constant, Ki   =   36.56 uM (micromolar)  [Temperature = 298.15 K]
DOCKED: USER    
DOCKED: USER    (1) Final Intermolecular Energy     =   -6.35 kcal/mol
DOCKED: USER        vdW + Hbond + desolv Energy     =   -6.35 kcal/mol
DOCKED: USER        Electrostatic Energy            =   -0.00 kcal/mol
DOCKED: USER    (2) Final Total Internal Energy     =   -0.14 kcal/mol
DOCKED: USER    (3) Torsional Free Energy           =   +0.30 kcal/mol
DOCKED: USER    (4) Unbound System's Energy         =   -0.14 kcal/mol
DOCKED: USER    
DOCKED: USER    
DOCKED: USER    NEWDPF move limonene.pdbqt
DOCKED: USER    NEWDPF about -0.000100 0.000100 -0.000200
DOCKED: USER    NEWDPF tran0 -20.322318 -1.623309 10.929575
DOCKED: USER    NEWDPF quaternion0 0.391787 0.745256 -0.277349 -0.462789
DOCKED: USER    NEWDPF axisangle0 0.441964 0.840702 -0.312870 -124.865490
DOCKED: USER    NEWDPF quat0 0.441964 0.840702 -0.312870 -124.865490
DOCKED: USER    NEWDPF dihe0 -115.34 
DOCKED: USER  keepresnum = 1 
DOCKED: USER  
DOCKED: REMARK  1 active torsions:
DOCKED: REMARK  status: ('A' for Active; 'I' for Inactive)
DOCKED: REMARK    1  A    between atoms: C_1  and  C_7 
DOCKED: USER                              x       y       z     vdW  Elec       q    Type
DOCKED: USER                           _______ _______ _______ _____ _____    ______ ____
DOCKED: ROOT
DOCKED: ATOM      1  C   UNK     0     -20.722  -1.127  10.432 -0.66 +0.00    +0.017 C 
DOCKED: ATOM      2  C   UNK     0     -21.182  -2.535  10.805 -0.70 +0.00    +0.013 C 
DOCKED: ATOM      3  C   UNK     0     -19.261  -0.905  10.837 -0.68 +0.00    +0.036 C 
DOCKED: ATOM      4  C   UNK     0     -21.041  -2.782  12.310 -0.60 +0.00    +0.034 C 
DOCKED: ATOM      5  C   UNK     0     -19.742  -2.274  12.885 -0.59 -0.00    -0.087 C 
DOCKED: ATOM      6  C   UNK     0     -18.940  -1.439  12.202 -0.71 -0.00    -0.024 C 
DOCKED: ATOM      7  C   UNK     0     -19.399  -2.753  14.264 -0.57 +0.00    +0.043 C 
DOCKED: ENDROOT
DOCKED: BRANCH   1   8
DOCKED: ATOM      8  C   UNK     0     -20.885  -0.921   8.958 -0.56 -0.00    -0.089 C 
DOCKED: ATOM      9  C   UNK     0     -21.511  -2.053   8.197 -0.63 +0.00    +0.043 C 
DOCKED: ATOM     10  C   UNK     0     -20.495   0.210   8.352 -0.64 +0.00    +0.014 C 
DOCKED: ENDBRANCH   1   8
DOCKED: TORSDOF 1
DOCKED: TER
DOCKED: ENDMDL
________________________________________________________________________________

DPF> analysis                             # perform a ranked cluster analysis


		CLUSTER ANALYSIS OF CONFORMATIONS
		_________________________________

Number of conformations = 10

RMSD cluster analysis will be performed using the ligand atoms only (10 / 10 total atoms).

Outputting structurally similar clusters, ranked in order of increasing energy.


________________________________________________________________________________

Number of distinct conformational clusters found = 2,  out of 10 runs,
Using an rmsd-tolerance of 2.0 A


	CLUSTERING HISTOGRAM
	____________________

________________________________________________________________________________
     |           |     |           |     |                                    
Clus | Lowest    | Run | Mean      | Num | Histogram                          
-ter | Binding   |     | Binding   | in  |                                    
Rank | Energy    |     | Energy    | Clus|    5    10   15   20   25   30   35
_____|___________|_____|___________|_____|____:____|____:____|____:____|____:___
   1 |     -6.07 |   3 |     -6.07 |   8 |########
   2 |     -5.97 |   9 |     -5.97 |   2 |##
_____|___________|_____|___________|_____|______________________________________


Number of multi-member conformational clusters found = 2, out of 10 runs.

	RMSD TABLE
	__________

_____________________________________________________________________
     |      |      |           |         |                 |
Rank | Sub- | Run  | Binding   | Cluster | Reference       | Grep
     | Rank |      | Energy    | RMSD    | RMSD            | Pattern
_____|______|______|___________|_________|_________________|___________
   1      1      3       -6.07      0.00     20.10           RANKING
   1      2      5       -6.07      0.16     20.14           RANKING
   1      3      8       -6.07      0.04     20.10           RANKING
   1      4      4       -6.07      0.07     20.15           RANKING
   1      5      6       -6.07      0.13     20.09           RANKING
   1      6      1       -6.07      0.17     20.15           RANKING
   1      7     10       -6.05      0.99     20.18           RANKING
   1      8      7       -6.05      0.96     20.15           RANKING
   2      1      9       -5.97      0.00     34.61           RANKING
   2      2      2       -5.97      0.07     34.64           RANKING
_______________________________________________________________________



	INFORMATION ENTROPY ANALYSIS FOR THIS CLUSTERING
	________________________________________________


Information entropy for this clustering = 0.22  (rmstol = 2.00 Angstrom)

_______________________________________________________________________


	STATISTICAL MECHANICAL ANALYSIS
	_______________________________


Partition function, Q =    10.10            at Temperature, T = 298.15 K
Free energy,        A ~ -1370.29 kcal/mol   at Temperature, T = 298.15 K
Internal energy,    U =    -6.05 kcal/mol   at Temperature, T = 298.15 K
Entropy,            S =     4.58 kcal/mol/K at Temperature, T = 298.15 K

_______________________________________________________________________


	LOWEST ENERGY DOCKED CONFORMATION from EACH CLUSTER
	___________________________________________________



Keeping original residue number (specified in the input PDBQ file) for outputting.

MODEL        3
USER    Run = 3
USER    Cluster Rank = 1
USER    Number of conformations in this cluster = 8
USER  
USER    RMSD from reference structure       = 20.102 A
USER  
USER    Estimated Free Energy of Binding    =   -6.07 kcal/mol  [=(1)+(2)+(3)-(4)]
USER    Estimated Inhibition Constant, Ki   =   35.41 uM (micromolar)  [Temperature = 298.15 K]
USER    
USER    (1) Final Intermolecular Energy     =   -6.37 kcal/mol
USER        vdW + Hbond + desolv Energy     =   -6.37 kcal/mol
USER        Electrostatic Energy            =   -0.00 kcal/mol
USER    (2) Final Total Internal Energy     =   -0.14 kcal/mol
USER    (3) Torsional Free Energy           =   +0.30 kcal/mol
USER    (4) Unbound System's Energy         =   -0.14 kcal/mol
USER    
USER    
USER  
USER    DPF = limonene.dpf
USER    NEWDPF move	limonene.pdbqt
USER    NEWDPF about	-0.000100 0.000100 -0.000200
USER    NEWDPF tran0	-20.292946 -1.641686 10.755439
USER    NEWDPF axisangle0	-0.277139 -0.894448 -0.350937 -68.402977
USER    NEWDPF quaternion0	-0.155781 -0.502773 -0.197263 -0.827066
USER    NEWDPF dihe0	-144.12 
USER  
USER                              x       y       z    vdW   Elec        q     RMS 
ATOM      1  C   UNK     0     -19.732  -1.968  11.237 -0.68 +0.00    +0.017    20.102
ATOM      2  C   UNK     0     -21.131  -2.543  11.022 -0.69 +0.00    +0.013    20.102
ATOM      3  C   UNK     0     -19.643  -0.535  10.705 -0.67 +0.00    +0.036    20.102
ATOM      4  C   UNK     0     -21.508  -2.540   9.538 -0.68 +0.00    +0.034    20.102
ATOM      5  C   UNK     0     -21.137  -1.263   8.825 -0.58 -0.00    -0.087    20.102
ATOM      6  C   UNK     0     -20.306  -0.358   9.371 -0.65 -0.00    -0.024    20.102
ATOM      7  C   UNK     0     -21.749  -1.063   7.470 -0.54 +0.00    +0.043    20.102
ATOM      8  C   UNK     0     -19.397  -1.998  12.696 -0.63 -0.00    -0.089    20.102
ATOM      9  C   UNK     0     -20.562  -1.977  13.643 -0.55 +0.00    +0.043    20.102
ATOM     10  C   UNK     0     -18.130  -2.044  13.133 -0.69 +0.00    +0.014    20.102
TER
ENDMDL
MODEL        9
USER    Run = 9
USER    Cluster Rank = 2
USER    Number of conformations in this cluster = 2
USER  
USER    RMSD from reference structure       = 34.606 A
USER  
USER    Estimated Free Energy of Binding    =   -5.97 kcal/mol  [=(1)+(2)+(3)-(4)]
USER    Estimated Inhibition Constant, Ki   =   41.89 uM (micromolar)  [Temperature = 298.15 K]
USER    
USER    (1) Final Intermolecular Energy     =   -6.27 kcal/mol
USER        vdW + Hbond + desolv Energy     =   -6.27 kcal/mol
USER        Electrostatic Energy            =   -0.00 kcal/mol
USER    (2) Final Total Internal Energy     =   -0.14 kcal/mol
USER    (3) Torsional Free Energy           =   +0.30 kcal/mol
USER    (4) Unbound System's Energy         =   -0.14 kcal/mol
USER    
USER    
USER  
USER    DPF = limonene.dpf
USER    NEWDPF move	limonene.pdbqt
USER    NEWDPF about	-0.000100 0.000100 -0.000200
USER    NEWDPF tran0	30.626611 -17.244526 11.325445
USER    NEWDPF axisangle0	-0.128489 0.733797 0.667107 -143.876634
USER    NEWDPF quaternion0	-0.122158 0.697638 0.634234 -0.310041
USER    NEWDPF dihe0	60.54 
USER  
USER                              x       y       z    vdW   Elec        q     RMS 
ATOM      1  C   UNK     0      29.990 -17.443  10.869 -0.71 +0.00    +0.017    34.606
ATOM      2  C   UNK     0      31.373 -17.096  10.322 -0.72 +0.00    +0.013    34.606
ATOM      3  C   UNK     0      29.868 -17.040  12.342 -0.71 +0.00    +0.036    34.606
ATOM      4  C   UNK     0      32.475 -17.797  11.121 -0.67 +0.00    +0.034    34.606
ATOM      5  C   UNK     0      32.259 -17.751  12.614 -0.63 -0.00    -0.087    34.606
ATOM      6  C   UNK     0      31.082 -17.393  13.152 -0.73 -0.00    -0.024    34.606
ATOM      7  C   UNK     0      33.436 -18.132  13.462 -0.53 +0.00    +0.043    34.606
ATOM      8  C   UNK     0      28.941 -16.748  10.057 -0.54 -0.00    -0.089    34.606
ATOM      9  C   UNK     0      27.518 -17.003  10.458 -0.56 +0.00    +0.043    34.606
ATOM     10  C   UNK     0      29.255 -15.943   9.031 -0.49 +0.00    +0.014    34.606
TER
ENDMDL


AVSFLD: # AVS field file
AVSFLD: #
AVSFLD: # Created by AutoDock
AVSFLD: #
AVSFLD: ndim=2           # number of dimensions in the field
AVSFLD: nspace=1         # number of physical coordinates
AVSFLD: veclen=7         # vector size
AVSFLD: dim1=10          # atoms
AVSFLD: dim2=2           # conformations
AVSFLD: data=Real       # data type (byte,integer,Real,double)
AVSFLD: field=uniform    # field coordinate layout
AVSFLD: label= x y z vdW Elec q RMS
AVSFLD: variable 1 file = limonene.dlg.pdb filetype = ascii offset = 5 stride = 12
AVSFLD: variable 2 file = limonene.dlg.pdb filetype = ascii offset = 6 stride = 12
AVSFLD: variable 3 file = limonene.dlg.pdb filetype = ascii offset = 7 stride = 12
AVSFLD: variable 4 file = limonene.dlg.pdb filetype = ascii offset = 8 stride = 12
AVSFLD: variable 5 file = limonene.dlg.pdb filetype = ascii offset = 9 stride = 12
AVSFLD: variable 6 file = limonene.dlg.pdb filetype = ascii offset = 10 stride = 12
AVSFLD: variable 7 file = limonene.dlg.pdb filetype = ascii offset = 11 stride = 12
AVSFLD: # end of file

>>> Closing the docking parameter file (DPF)...
This docking finished at:			2:33 42" p.m., 05/18/2023


________________________________________________________________________________

/usr/bin/autodock4: Successful Completion on "asus-F509FB"

Real= 1m 30.68s,  CPU= 1m 30.34s,  System= 0.14s
________________________________________________________________________________

