          AutoDock 4.2 Release 4.2.6   
         (C) 1989-2012 The Scripps Research Institute
        AutoDock comes with ABSOLUTELY NO WARRANTY.
        AutoDock is free software, and you are welcome
        to redistribute it under certain conditions;
        for details type 'autodock4 -C'

                     main.cc  $Revision: 1.213 $

                   Compiled on Mar 22 2020 at 15:34:10


This file was created at:			2:23 52" p.m., 05/18/2023
                   on host:		"asus-F509FB"
Current Working Directory = "/media/asus/shityakoff/Collaborators_students/Hfid/fungi"

      ________________________________________________________________

                   SETTING UP DEFAULT PARAMETER LIBRARY
      ________________________________________________________________


Random number generator was seeded with values 11623, 1684409032.
Docking parameter file (DPF) used for this docking:		myrcene.dpf
DPF> autodock_parameter_version 4.2       # used by autodock to validate parameter set

	Autodock parameter version 4.2.
DPF> outlev 1                             # diagnostic output level

Output Level = 1  ADT-COMPATIBLE OUTPUT DURING DOCKING.
DPF> intelec                              # calculate internal electrostatics

Electrostatic energies will be calculated for all non-bonds between moving atoms.
DPF> seed pid time                        # seeds for random generator

Random number generator was seeded with values 11623, 1684409032.
DPF> ligand_types C                       # atoms types in ligand

DPF> fld receptor.mem_erg.maps.fld        # grid_data_file

Opening Grid Map Dimensions file:		receptor.mem_erg.maps.fld
Grid Point Spacing =				0.375 Angstroms

Even Number of User-specified Grid Points =	300 x-points
						300 y-points
						60 z-points

Coordinates of Central Grid Point of Maps =	(-2.010, 2.090, 9.340)
Macromolecule file used to create Grid Maps =	receptor.mem_erg.pdbqt
Grid Parameter file used to create Grid Maps =	mem_erg.gpf
Minimum coordinates in grid = (-58.260, -54.160, -1.910)
Maximum coordinates in grid = (54.240, 58.340, 20.590)

DPF> map receptor.mem_erg.C.map           # atom-specific affinity map

DPF> elecmap receptor.mem_erg.e.map       # electrostatics map

DPF> desolvmap receptor.mem_erg.d.map     # desolvation map

DPF> move myrcene.pdbqt                   # small molecule

1,4-interactions will be _ignored_ in the non-bonded internal energy calculation.

Ligand PDBQT file = "myrcene.pdbqt"

INPUT LIGAND PDBQT FILE:
________________________

INPUT-LIGAND-PDBQT: REMARK  4 active torsions:
INPUT-LIGAND-PDBQT: REMARK  status: ('A' for Active; 'I' for Inactive)
INPUT-LIGAND-PDBQT: REMARK    1  A    between atoms: C_1  and  C_2 
INPUT-LIGAND-PDBQT: REMARK    2  A    between atoms: C_1  and  C_3 
INPUT-LIGAND-PDBQT: REMARK    3  A    between atoms: C_2  and  C_5 
INPUT-LIGAND-PDBQT: REMARK    4  A    between atoms: C_5  and  C_8 
INPUT-LIGAND-PDBQT: ROOT
INPUT-LIGAND-PDBQT: HETATM    1  C   UNK     0      -0.152   0.076   1.519  0.00  0.00     0.032 C 
INPUT-LIGAND-PDBQT: ENDROOT
INPUT-LIGAND-PDBQT: BRANCH   1   2
INPUT-LIGAND-PDBQT: HETATM    2  C   UNK     0       1.113  -0.729   1.182  0.00  0.00     0.041 C 
INPUT-LIGAND-PDBQT: BRANCH   2   3
INPUT-LIGAND-PDBQT: HETATM    3  C   UNK     0       1.527  -0.653  -0.274  0.00  0.00    -0.068 C 
INPUT-LIGAND-PDBQT: HETATM    4  C   UNK     0       1.102  -1.588  -1.142  0.00  0.00     0.019 C 
INPUT-LIGAND-PDBQT: BRANCH   3   5
INPUT-LIGAND-PDBQT: HETATM    5  C   UNK     0       2.358   0.444  -0.753  0.00  0.00    -0.004 C 
INPUT-LIGAND-PDBQT: HETATM    6  C   UNK     0       2.862   1.452  -0.030  0.00  0.00     0.012 C 
INPUT-LIGAND-PDBQT: ENDBRANCH   3   5
INPUT-LIGAND-PDBQT: ENDBRANCH   2   3
INPUT-LIGAND-PDBQT: ENDBRANCH   1   2
INPUT-LIGAND-PDBQT: BRANCH   1   7
INPUT-LIGAND-PDBQT: HETATM    7  C   UNK     0      -1.371  -0.431   0.799  0.00  0.00    -0.024 C 
INPUT-LIGAND-PDBQT: HETATM    8  C   UNK     0      -2.149   0.229  -0.080  0.00  0.00    -0.091 C 
INPUT-LIGAND-PDBQT: HETATM    9  C   UNK     0      -3.328  -0.458  -0.717  0.00  0.00     0.042 C 
INPUT-LIGAND-PDBQT: HETATM   10  C   UNK     0      -1.962   1.658  -0.504  0.00  0.00     0.042 C 
INPUT-LIGAND-PDBQT: ENDBRANCH   1   7
INPUT-LIGAND-PDBQT: TORSDOF 4
________________________________________________________________________________

Total charge on ligand                               =	+0.001 e
REMARK  4 active torsions:
REMARK  status: ('A' for Active; 'I' for Inactive)
REMARK    1  A    between atoms: C_1  and  C_2 
REMARK    2  A    between atoms: C_1  and  C_3 
REMARK    3  A    between atoms: C_2  and  C_5 
REMARK    4  A    between atoms: C_5  and  C_8 


Number of Rotatable Bonds in Small Molecule =	4 torsions
Number of atoms in ligand:  10

Number of non-hydrogen atoms in ligand:  10

Number of vibrational degrees of freedom of ligand:  24


Number of torsional degrees of freedom = 4
Estimated loss of torsional free energy upon binding = +1.1932 kcal/mol


DPF> about 0.0 0.0 0.0                    # small molecule center

Small molecule center of rotation =	(+0.000, +0.000, +0.000)

DPF> tran0 random                         # initial coordinates/A or random

Initial translation =			(39.593, -45.056, 17.532) Angstroms
DPF> quaternion0 random                   # initial orientation

Each run will begin with a new, random initial orientation.
Initial quaternion,  (x,y,z,w) =	( -0.902, 0.284, -0.123, -0.299 ),
DPF> dihe0 random                         # initial dihedrals (relative) or random

DPF> torsdof 4                            # torsional degrees of freedom

Number of torsional degrees of freedom = 4
Free energy coefficient for torsional degrees of freedom = 0.2983, the factory default value.

Estimated loss of torsional free energy upon binding = +1.1932 kcal/mol

DPF> rmstol 2.0                           # cluster_tolerance/A

Maximum RMS tolerance for conformational cluster analysis = 2.00 Angstroms
DPF> extnrg 1000.0                        # external grid energy

External grid energy (beyond grid map walls) = 1000.00

DPF> e0max 0.0 10000                      # max initial energy; max number of retries

Using user-specified maximum number of retries for simanneal initialization, 10000 retries.
If the simanneal initial energy is greater than e0max, 0.000,
then a new, random initial state will be created.

DPF> ga_pop_size 150                      # number of individuals in population

A population of 150 individuals will be used
DPF> ga_num_evals 2500000                 # maximum number of energy evaluations

There will be at most 2500000 function evaluations used.
DPF> ga_num_generations 27000             # maximum number of generations

The GA will run for at most 27000 generations.
DPF> ga_elitism 1                         # number of top individuals to survive to next generation

The 1 best will be preserved each GA generation.
DPF> ga_mutation_rate 0.02                # rate of gene mutation

The mutation rate is 0.020000.
DPF> ga_crossover_rate 0.8                # rate of crossover

The crossover rate is 0.800000.
DPF> ga_window_size 10                    # 

The GA's selection window is 10 generations.
DPF> ga_cauchy_alpha 0.0                  # Alpha parameter of Cauchy distribution

The alpha parameter (for the Cauchy distribution) is being set to 0.000000.
DPF> ga_cauchy_beta 1.0                   # Beta parameter Cauchy distribution

The beta parameter (for the Cauchy distribution) is being set to 1.000000.
DPF> set_ga                               # set the above parameters for GA or LGA

DPF> sw_max_its 300                       # iterations of Solis & Wets local search

Solis & Wets algorithms will perform at most 300 iterations.
DPF> sw_max_succ 4                        # consecutive successes before changing rho

Solis & Wets algorithms expand rho every 4 in a row successes.
DPF> sw_max_fail 4                        # consecutive failures before changing rho

Solis & Wets algorithms contract rho every 4 in a row failures.
DPF> sw_rho 1.0                           # size of local search space to sample

rho is set to 1.000000.
DPF> sw_lb_rho 0.01                       # lower bound on rho

rho will never get smaller than 0.010000.
DPF> ls_search_freq 0.06                  # probability of performing local search on individual

Local search will be performed with frequency 0.060000.
DPF> set_psw1                             # set the above pseudo-Solis & Wets parameters

Creating a new Local Search object using the pseudo-Solis-Wets algorithm (pSW1) with the current settings.

DPF> unbound_model extended               # state of unbound ligand

/usr/bin/autodock4: WARNING: Using autodock4.0 unbound extended model in autodock4.2!
Computing the energy of the unbound state of the ligand,
given the torsion tree defined in the ligand file.


	BEGINNING COMPUTATION OF UNBOUND EXTENDED STATE USING LGA
	_________________________________________________________


Date:	Thu May 18 14:23:57 2023
Beginning LAMARCKIAN GENETIC ALGORITHM (LGA), with a maximum of 1000000 energy evaluations.

Final-Value: -113.713

Finished Lamarckian Genetic Algorithm (LGA)
2:24 00" p.m., 05/18/2023

Total number of Energy Evaluations: 1000549
Total number of Generations:        1102


		Ligand Intramolecular Energy Analysis
		=====================================

Non-bond  Atom1-Atom2  Distance   Total        Elec     vdW        Hb     Desolv     Sol_fn   Type Dielectric
________  ___________  ________   ______  _________  ________ ________  ________   ________   ____ __________
      1       1-6       5.0655   -0.0175    +0.0001   -0.0137   +0.0000   -0.0039    +0.0491   1    25.208
      2       2-9       4.9704   -0.0178    +0.0007   -0.0151   +0.0000   -0.0033    +0.0510   1    24.581
      3       2-10      4.6453   -0.0233    +0.0008   -0.0204   +0.0000   -0.0038    +0.0575   1    22.506
      4       3-8       5.1048   -0.0128    +0.0022   -0.0132   +0.0000   -0.0018    +0.0484   1    25.449
      5       3-9       6.3692   -0.0059    -0.0006   -0.0037   +0.0000   -0.0015    +0.0276   1    33.979
      6       3-10      5.6341   -0.0107    -0.0008   -0.0077   +0.0000   -0.0022    +0.0389   1    28.964
      7       4-7       4.3302   -0.0300    -0.0002   -0.0246   +0.0000   -0.0051    +0.0641   1    20.561
      8       4-8       5.3330   -0.0135    -0.0006   -0.0105   +0.0000   -0.0024    +0.0441   1    26.966
      9       4-9       6.7438   -0.0042    +0.0002   -0.0027   +0.0000   -0.0017    +0.0229   1    36.543
     10       4-10      5.5057   -0.0115    +0.0002   -0.0088   +0.0000   -0.0030    +0.0411   1    28.118
     11       5-7       5.1062   -0.0173    +0.0000   -0.0132   +0.0000   -0.0041    +0.0484   1    25.469
     12       5-8       6.3864   -0.0053    +0.0001   -0.0037   +0.0000   -0.0017    +0.0274   1    34.097
     13       5-9       7.5445   -0.0025    -0.0000   -0.0013   +0.0000   -0.0012    +0.0147   1    41.970
     14       5-10      7.0314   -0.0036    -0.0000   -0.0021   +0.0000   -0.0015    +0.0196   1    38.511
     15       6-7       6.3518   -0.0062    -0.0001   -0.0038   +0.0000   -0.0023    +0.0279   1    33.861
     16       6-8       7.5973   -0.0023    -0.0002   -0.0013   +0.0000   -0.0008    +0.0143   1    42.328
     17       6-9       8.8130   -0.0004    +0.0001   +0.0000   +0.0000   -0.0005    +0.0066   1    50.069
     18       6-10      8.1182   -0.0007    +0.0001   +0.0000   +0.0000   -0.0008    +0.0104   1    45.728
                                ________   ________  ________  ________  ________
Total                            -0.1855    +0.0019   -0.1457    +0.0000   -0.0417
                                ________  ________  ________  ________ ________
                                   Total       Elec       vdW        Hb    Desolv


	Per-atom Intramolecular Energy Analysis
	=======================================

Atom Type   Total     Elec       vdW        Hb     Desolv 
____ ___  ________  ________  ________  ________  ________
   1  C    -0.0088   +0.0001   -0.0069   +0.0000   -0.0020
   2  C    -0.0206   +0.0007   -0.0177   +0.0000   -0.0035
   3  C    -0.0147   +0.0004   -0.0123   +0.0000   -0.0027
   4  C    -0.0296   -0.0002   -0.0233   +0.0000   -0.0061
   5  C    -0.0144   +0.0000   -0.0101   +0.0000   -0.0043
   6  C    -0.0136   +0.0000   -0.0094   +0.0000   -0.0042
   7  C    -0.0267   -0.0001   -0.0208   +0.0000   -0.0058
   8  C    -0.0169   +0.0008   -0.0143   +0.0000   -0.0034
   9  C    -0.0154   +0.0001   -0.0114   +0.0000   -0.0041
  10  C    -0.0250   +0.0001   -0.0194   +0.0000   -0.0056


Total Intramolecular Interaction Energy   = -0.186 kcal/mol


The internal energy of the unbound extended state was computed to be -0.186 kcal/mol

NOTE:   The AutoDock internal energy of the "extended" state was negative.

NOTE:   The unbound state was set to the "extended" state.



The internal energy of the unbound state was set to -0.186 kcal/mol



	FINAL UNBOUND STATE
	___________________


Detailed state:  trans -57.903 -12.717 -1.880 quatxyzw 0.378643 0.207700 -0.490977 -0.756592 center 0.000 0.000 0.000 ntor 4 -171.5934 105.6430 -59.6164 118.0421
State:	-57.903 -12.717  -1.880   0.579  0.318 -0.751 -81.671   -171.59  105.64  -59.62  118.04

UNBOUND: MODEL        0
UNBOUND: USER    Run = 0
UNBOUND: USER    DPF = myrcene.dpf
UNBOUND: USER  
UNBOUND: USER    (1) Final Intermolecular Energy     =   +0.00 kcal/mol
UNBOUND: USER        vdW + Hbond + desolv Energy     =   +0.00 kcal/mol
UNBOUND: USER        Electrostatic Energy            =   +0.00 kcal/mol
UNBOUND: USER    (2) Final Total Internal Energy     =   -0.19 kcal/mol
UNBOUND: USER    (3) Torsional Free Energy           =   +1.19 kcal/mol
UNBOUND: USER    (4) Unbound System's Energy         =   -0.19 kcal/mol
UNBOUND: USER    
UNBOUND: USER    
UNBOUND: USER    NEWDPF move myrcene.pdbqt
UNBOUND: USER    NEWDPF about 0.000000 0.000000 0.000000
UNBOUND: USER    NEWDPF tran0 -57.902759 -12.716748 -1.879788
UNBOUND: USER    NEWDPF quaternion0 0.378643 0.207700 -0.490977 -0.756592
UNBOUND: USER    NEWDPF axisangle0 0.579065 0.317639 -0.750859 -81.670633
UNBOUND: USER    NEWDPF quat0 0.579065 0.317639 -0.750859 -81.670633
UNBOUND: USER    NEWDPF dihe0 -171.59 105.64 -59.62 118.04 
UNBOUND: USER  keepresnum = 1 
UNBOUND: USER  
UNBOUND: REMARK  4 active torsions:
UNBOUND: REMARK  status: ('A' for Active; 'I' for Inactive)
UNBOUND: REMARK    1  A    between atoms: C_1  and  C_2 
UNBOUND: REMARK    2  A    between atoms: C_1  and  C_3 
UNBOUND: REMARK    3  A    between atoms: C_2  and  C_5 
UNBOUND: REMARK    4  A    between atoms: C_5  and  C_8 
UNBOUND: USER                              x       y       z     vdW  Elec       q    Type
UNBOUND: USER                           _______ _______ _______ _____ _____    ______ ____
UNBOUND: ROOT
UNBOUND: ATOM      1  C   UNK     0     -57.987 -13.790  -0.795 +0.00 +0.00    +0.032 C 
UNBOUND: ENDROOT
UNBOUND: BRANCH   1   2
UNBOUND: ATOM      2  C   UNK     0     -58.147 -14.455  -2.171 +0.00 +0.00    +0.041 C 
UNBOUND: BRANCH   2   3
UNBOUND: ATOM      3  C   UNK     0     -57.234 -15.645  -2.395 +0.00 +0.00    -0.068 C 
UNBOUND: ATOM      4  C   UNK     0     -56.572 -16.187  -1.357 +0.00 +0.00    +0.019 C 
UNBOUND: BRANCH   3   5
UNBOUND: ATOM      5  C   UNK     0     -57.089 -16.230  -3.722 +0.00 +0.00    -0.004 C 
UNBOUND: ATOM      6  C   UNK     0     -56.473 -17.376  -4.037 +0.00 +0.00    +0.012 C 
UNBOUND: ENDBRANCH   3   5
UNBOUND: ENDBRANCH   2   3
UNBOUND: ENDBRANCH   1   2
UNBOUND: BRANCH   1   7
UNBOUND: ATOM      7  C   UNK     0     -58.928 -12.634  -0.597 +0.00 +0.00    -0.024 C 
UNBOUND: ATOM      8  C   UNK     0     -59.032 -11.823   0.473 +0.00 +0.00    -0.091 C 
UNBOUND: ATOM      9  C   UNK     0     -60.032 -10.698   0.480 +0.00 +0.00    +0.042 C 
UNBOUND: ATOM     10  C   UNK     0     -58.221 -11.938   1.732 +0.00 +0.00    +0.042 C 
UNBOUND: ENDBRANCH   1   7
UNBOUND: TORSDOF 4
UNBOUND: TER
UNBOUND: ENDMDL
________________________________________________________________________________

DPF> ga_run 10                            # do this many hybrid GA-LS runs

centering ligand on specified point: 0.000 0.000 0.000
Furthest true ligand atom from "about" center is 3.435 Angstroms (maxrad).
Number of requested GA dockings = 10 runs
Unbound model to be used is 'extended' [AutoDock 4.0 default].

	BEGINNING GENETIC ALGORITHM DOCKING 1 of 10
Run: 1 Seed: 1364574565 415690535 [ Run 1 of 10 GA/GALS ]
Beginning LAMARCKIAN GENETIC ALGORITHM (LGA), with a maximum of 2500000 energy evaluations.

Final-Value: -6.775


	FINAL GENETIC ALGORITHM DOCKED STATE
	_______________________________________________


Detailed state:  trans -18.877 0.245 10.211 quatxyzw 0.273468 -0.565640 -0.081782 -0.773678 center 0.000 0.000 0.000 ntor 4 28.2232 -30.0233 -152.2914 141.5385
State:	-18.877   0.245  10.211   0.432 -0.893 -0.129 -78.629     28.22  -30.02 -152.29  141.54

DOCKED: MODEL        1
DOCKED: USER    Run = 1
DOCKED: USER    DPF = myrcene.dpf
DOCKED: USER  
DOCKED: USER    Estimated Free Energy of Binding    =   -5.40 kcal/mol  [=(1)+(2)+(3)-(4)]
DOCKED: USER    Estimated Inhibition Constant, Ki   =  110.75 uM (micromolar)  [Temperature = 298.15 K]
DOCKED: USER    
DOCKED: USER    (1) Final Intermolecular Energy     =   -6.43 kcal/mol
DOCKED: USER        vdW + Hbond + desolv Energy     =   -6.43 kcal/mol
DOCKED: USER        Electrostatic Energy            =   -0.00 kcal/mol
DOCKED: USER    (2) Final Total Internal Energy     =   -0.35 kcal/mol
DOCKED: USER    (3) Torsional Free Energy           =   +1.19 kcal/mol
DOCKED: USER    (4) Unbound System's Energy         =   -0.19 kcal/mol
DOCKED: USER    
DOCKED: USER    
DOCKED: USER    NEWDPF move myrcene.pdbqt
DOCKED: USER    NEWDPF about 0.000000 0.000000 0.000000
DOCKED: USER    NEWDPF tran0 -18.877184 0.244733 10.211328
DOCKED: USER    NEWDPF quaternion0 0.273468 -0.565640 -0.081782 -0.773678
DOCKED: USER    NEWDPF axisangle0 0.431625 -0.892770 -0.129079 -78.629252
DOCKED: USER    NEWDPF quat0 0.431625 -0.892770 -0.129079 -78.629252
DOCKED: USER    NEWDPF dihe0 28.22 -30.02 -152.29 141.54 
DOCKED: USER  keepresnum = 1 
DOCKED: USER  
DOCKED: REMARK  4 active torsions:
DOCKED: REMARK  status: ('A' for Active; 'I' for Inactive)
DOCKED: REMARK    1  A    between atoms: C_1  and  C_2 
DOCKED: REMARK    2  A    between atoms: C_1  and  C_3 
DOCKED: REMARK    3  A    between atoms: C_2  and  C_5 
DOCKED: REMARK    4  A    between atoms: C_5  and  C_8 
DOCKED: USER                              x       y       z     vdW  Elec       q    Type
DOCKED: USER                           _______ _______ _______ _____ _____    ______ ____
DOCKED: ROOT
DOCKED: ATOM      1  C   UNK     0     -20.341  -0.128  10.444 -0.66 +0.00    +0.032 C 
DOCKED: ENDROOT
DOCKED: BRANCH   1   2
DOCKED: ATOM      2  C   UNK     0     -19.445  -1.241  11.009 -0.67 +0.00    +0.041 C 
DOCKED: BRANCH   2   3
DOCKED: ATOM      3  C   UNK     0     -20.069  -2.021  12.149 -0.62 -0.00    -0.068 C 
DOCKED: ATOM      4  C   UNK     0     -19.440  -2.092  13.336 -0.66 +0.00    +0.019 C 
DOCKED: BRANCH   3   5
DOCKED: ATOM      5  C   UNK     0     -21.363  -2.670  11.985 -0.65 -0.00    -0.004 C 
DOCKED: ATOM      6  C   UNK     0     -21.884  -3.159  10.852 -0.72 +0.00    +0.012 C 
DOCKED: ENDBRANCH   3   5
DOCKED: ENDBRANCH   2   3
DOCKED: ENDBRANCH   1   2
DOCKED: BRANCH   1   7
DOCKED: ATOM      7  C   UNK     0     -20.009   0.217   9.019 -0.66 -0.00    -0.024 C 
DOCKED: ATOM      8  C   UNK     0     -20.502  -0.337   7.895 -0.57 -0.00    -0.091 C 
DOCKED: ATOM      9  C   UNK     0     -20.058   0.159   6.544 -0.60 +0.00    +0.042 C 
DOCKED: ATOM     10  C   UNK     0     -21.492  -1.466   7.845 -0.62 +0.00    +0.042 C 
DOCKED: ENDBRANCH   1   7
DOCKED: TORSDOF 4
DOCKED: TER
DOCKED: ENDMDL
________________________________________________________________________________


	BEGINNING GENETIC ALGORITHM DOCKING 2 of 10
Run: 2 Seed: 1867882023 173775991 [ Run 2 of 10 GA/GALS ]
Beginning LAMARCKIAN GENETIC ALGORITHM (LGA), with a maximum of 2500000 energy evaluations.

Final-Value: -6.694


	FINAL GENETIC ALGORITHM DOCKED STATE
	_______________________________________________


Detailed state:  trans -18.951 -0.369 10.044 quatxyzw 0.020271 -0.377646 -0.080806 -0.922195 center 0.000 0.000 0.000 ntor 4 122.6741 -79.1764 180.0000 177.9788
State:	-18.951  -0.369  10.044   0.052 -0.977 -0.209 -45.502    122.67  -79.18  180.00  177.98

DOCKED: MODEL        2
DOCKED: USER    Run = 2
DOCKED: USER    DPF = myrcene.dpf
DOCKED: USER  
DOCKED: USER    Estimated Free Energy of Binding    =   -5.32 kcal/mol  [=(1)+(2)+(3)-(4)]
DOCKED: USER    Estimated Inhibition Constant, Ki   =  127.03 uM (micromolar)  [Temperature = 298.15 K]
DOCKED: USER    
DOCKED: USER    (1) Final Intermolecular Energy     =   -6.32 kcal/mol
DOCKED: USER        vdW + Hbond + desolv Energy     =   -6.32 kcal/mol
DOCKED: USER        Electrostatic Energy            =   -0.00 kcal/mol
DOCKED: USER    (2) Final Total Internal Energy     =   -0.37 kcal/mol
DOCKED: USER    (3) Torsional Free Energy           =   +1.19 kcal/mol
DOCKED: USER    (4) Unbound System's Energy         =   -0.19 kcal/mol
DOCKED: USER    
DOCKED: USER    
DOCKED: USER    NEWDPF move myrcene.pdbqt
DOCKED: USER    NEWDPF about 0.000000 0.000000 0.000000
DOCKED: USER    NEWDPF tran0 -18.950591 -0.368704 10.044123
DOCKED: USER    NEWDPF quaternion0 0.020271 -0.377646 -0.080806 -0.922195
DOCKED: USER    NEWDPF axisangle0 0.052416 -0.976521 -0.208949 -45.501812
DOCKED: USER    NEWDPF quat0 0.052416 -0.976521 -0.208949 -45.501812
DOCKED: USER    NEWDPF dihe0 122.67 -79.18 180.00 177.98 
DOCKED: USER  keepresnum = 1 
DOCKED: USER  
DOCKED: REMARK  4 active torsions:
DOCKED: REMARK  status: ('A' for Active; 'I' for Inactive)
DOCKED: REMARK    1  A    between atoms: C_1  and  C_2 
DOCKED: REMARK    2  A    between atoms: C_1  and  C_3 
DOCKED: REMARK    3  A    between atoms: C_2  and  C_5 
DOCKED: REMARK    4  A    between atoms: C_5  and  C_8 
DOCKED: USER                              x       y       z     vdW  Elec       q    Type
DOCKED: USER                           _______ _______ _______ _____ _____    ______ ____
DOCKED: ROOT
DOCKED: ATOM      1  C   UNK     0     -20.110  -0.233  11.031 -0.65 +0.00    +0.032 C 
DOCKED: ENDROOT
DOCKED: BRANCH   1   2
DOCKED: ATOM      2  C   UNK     0     -19.094  -1.243  11.588 -0.70 +0.00    +0.041 C 
DOCKED: BRANCH   2   3
DOCKED: ATOM      3  C   UNK     0     -19.576  -1.996  12.812 -0.63 -0.00    -0.068 C 
DOCKED: ATOM      4  C   UNK     0     -18.727  -2.790  13.488 -0.64 +0.00    +0.019 C 
DOCKED: BRANCH   3   5
DOCKED: ATOM      5  C   UNK     0     -20.945  -1.843  13.286 -0.57 -0.00    -0.004 C 
DOCKED: ATOM      6  C   UNK     0     -21.846  -2.814  13.481 -0.59 +0.00    +0.012 C 
DOCKED: ENDBRANCH   3   5
DOCKED: ENDBRANCH   2   3
DOCKED: ENDBRANCH   1   2
DOCKED: BRANCH   1   7
DOCKED: ATOM      7  C   UNK     0     -20.529  -0.550   9.622 -0.65 -0.00    -0.024 C 
DOCKED: ATOM      8  C   UNK     0     -21.149  -1.657   9.170 -0.57 -0.00    -0.091 C 
DOCKED: ATOM      9  C   UNK     0     -21.508  -1.786   7.713 -0.62 +0.00    +0.042 C 
DOCKED: ATOM     10  C   UNK     0     -21.528  -2.844  10.009 -0.69 +0.00    +0.042 C 
DOCKED: ENDBRANCH   1   7
DOCKED: TORSDOF 4
DOCKED: TER
DOCKED: ENDMDL
________________________________________________________________________________


	BEGINNING GENETIC ALGORITHM DOCKING 3 of 10
Run: 3 Seed: 1855643717 1714896594 [ Run 3 of 10 GA/GALS ]
Beginning LAMARCKIAN GENETIC ALGORITHM (LGA), with a maximum of 2500000 energy evaluations.

Final-Value: -6.348


	FINAL GENETIC ALGORITHM DOCKED STATE
	_______________________________________________


Detailed state:  trans 4.145 19.648 12.428 quatxyzw 0.378707 0.558512 -0.404500 -0.617272 center 0.000 0.000 0.000 ntor 4 89.8991 15.0158 -157.2277 30.8483
State:	  4.145  19.648  12.428   0.481  0.710 -0.514 -103.766     89.90   15.02 -157.23   30.85

DOCKED: MODEL        3
DOCKED: USER    Run = 3
DOCKED: USER    DPF = myrcene.dpf
DOCKED: USER  
DOCKED: USER    Estimated Free Energy of Binding    =   -4.97 kcal/mol  [=(1)+(2)+(3)-(4)]
DOCKED: USER    Estimated Inhibition Constant, Ki   =  227.66 uM (micromolar)  [Temperature = 298.15 K]
DOCKED: USER    
DOCKED: USER    (1) Final Intermolecular Energy     =   -6.08 kcal/mol
DOCKED: USER        vdW + Hbond + desolv Energy     =   -6.08 kcal/mol
DOCKED: USER        Electrostatic Energy            =   -0.00 kcal/mol
DOCKED: USER    (2) Final Total Internal Energy     =   -0.27 kcal/mol
DOCKED: USER    (3) Torsional Free Energy           =   +1.19 kcal/mol
DOCKED: USER    (4) Unbound System's Energy         =   -0.19 kcal/mol
DOCKED: USER    
DOCKED: USER    
DOCKED: USER    NEWDPF move myrcene.pdbqt
DOCKED: USER    NEWDPF about 0.000000 0.000000 0.000000
DOCKED: USER    NEWDPF tran0 4.144685 19.648080 12.428446
DOCKED: USER    NEWDPF quaternion0 0.378707 0.558512 -0.404500 -0.617272
DOCKED: USER    NEWDPF axisangle0 0.481357 0.709898 -0.514140 -103.765644
DOCKED: USER    NEWDPF quat0 0.481357 0.709898 -0.514140 -103.765644
DOCKED: USER    NEWDPF dihe0 89.90 15.02 -157.23 30.85 
DOCKED: USER  keepresnum = 1 
DOCKED: USER  
DOCKED: REMARK  4 active torsions:
DOCKED: REMARK  status: ('A' for Active; 'I' for Inactive)
DOCKED: REMARK    1  A    between atoms: C_1  and  C_2 
DOCKED: REMARK    2  A    between atoms: C_1  and  C_3 
DOCKED: REMARK    3  A    between atoms: C_2  and  C_5 
DOCKED: REMARK    4  A    between atoms: C_5  and  C_8 
DOCKED: USER                              x       y       z     vdW  Elec       q    Type
DOCKED: USER                           _______ _______ _______ _____ _____    ______ ____
DOCKED: ROOT
DOCKED: ATOM      1  C   UNK     0       4.789  18.292  12.717 -0.69 -0.00    +0.032 C 
DOCKED: ENDROOT
DOCKED: BRANCH   1   2
DOCKED: ATOM      2  C   UNK     0       3.980  18.195  11.414 -0.67 +0.00    +0.041 C 
DOCKED: BRANCH   2   3
DOCKED: ATOM      3  C   UNK     0       4.130  19.394  10.499 -0.69 -0.00    -0.068 C 
DOCKED: ATOM      4  C   UNK     0       3.463  20.530  10.766 -0.62 +0.00    +0.019 C 
DOCKED: BRANCH   3   5
DOCKED: ATOM      5  C   UNK     0       5.019  19.340   9.345 -0.78 -0.00    -0.004 C 
DOCKED: ATOM      6  C   UNK     0       4.702  18.973   8.097 -0.64 +0.00    +0.012 C 
DOCKED: ENDBRANCH   3   5
DOCKED: ENDBRANCH   2   3
DOCKED: ENDBRANCH   1   2
DOCKED: BRANCH   1   7
DOCKED: ATOM      7  C   UNK     0       3.986  18.852  13.858 -0.67 -0.00    -0.024 C 
DOCKED: ATOM      8  C   UNK     0       3.148  18.195  14.682 -0.50 -0.00    -0.091 C 
DOCKED: ATOM      9  C   UNK     0       2.440  18.929  15.790 -0.38 +0.00    +0.042 C 
DOCKED: ATOM     10  C   UNK     0       2.817  16.732  14.599 -0.45 -0.00    +0.042 C 
DOCKED: ENDBRANCH   1   7
DOCKED: TORSDOF 4
DOCKED: TER
DOCKED: ENDMDL
________________________________________________________________________________


	BEGINNING GENETIC ALGORITHM DOCKING 4 of 10
Run: 4 Seed: 224957918 1207225657 [ Run 4 of 10 GA/GALS ]
Beginning LAMARCKIAN GENETIC ALGORITHM (LGA), with a maximum of 2500000 energy evaluations.

Final-Value: -6.262


	FINAL GENETIC ALGORITHM DOCKED STATE
	_______________________________________________


Detailed state:  trans 29.644 -17.429 10.032 quatxyzw 0.664654 -0.476699 0.401052 0.412493 center 0.000 0.000 0.000 ntor 4 -128.4272 9.4574 56.1602 -109.6593
State:	 29.644 -17.429  10.032   0.730 -0.523  0.440 131.277   -128.43    9.46   56.16 -109.66

DOCKED: MODEL        4
DOCKED: USER    Run = 4
DOCKED: USER    DPF = myrcene.dpf
DOCKED: USER  
DOCKED: USER    Estimated Free Energy of Binding    =   -4.88 kcal/mol  [=(1)+(2)+(3)-(4)]
DOCKED: USER    Estimated Inhibition Constant, Ki   =  263.42 uM (micromolar)  [Temperature = 298.15 K]
DOCKED: USER    
DOCKED: USER    (1) Final Intermolecular Energy     =   -5.84 kcal/mol
DOCKED: USER        vdW + Hbond + desolv Energy     =   -5.84 kcal/mol
DOCKED: USER        Electrostatic Energy            =   +0.00 kcal/mol
DOCKED: USER    (2) Final Total Internal Energy     =   -0.43 kcal/mol
DOCKED: USER    (3) Torsional Free Energy           =   +1.19 kcal/mol
DOCKED: USER    (4) Unbound System's Energy         =   -0.19 kcal/mol
DOCKED: USER    
DOCKED: USER    
DOCKED: USER    NEWDPF move myrcene.pdbqt
DOCKED: USER    NEWDPF about 0.000000 0.000000 0.000000
DOCKED: USER    NEWDPF tran0 29.643625 -17.429366 10.031750
DOCKED: USER    NEWDPF quaternion0 0.664654 -0.476699 0.401052 0.412493
DOCKED: USER    NEWDPF axisangle0 0.729619 -0.523292 0.440252 131.276937
DOCKED: USER    NEWDPF quat0 0.729619 -0.523292 0.440252 131.276937
DOCKED: USER    NEWDPF dihe0 -128.43 9.46 56.16 -109.66 
DOCKED: USER  keepresnum = 1 
DOCKED: USER  
DOCKED: REMARK  4 active torsions:
DOCKED: REMARK  status: ('A' for Active; 'I' for Inactive)
DOCKED: REMARK    1  A    between atoms: C_1  and  C_2 
DOCKED: REMARK    2  A    between atoms: C_1  and  C_3 
DOCKED: REMARK    3  A    between atoms: C_2  and  C_5 
DOCKED: REMARK    4  A    between atoms: C_5  and  C_8 
DOCKED: USER                              x       y       z     vdW  Elec       q    Type
DOCKED: USER                           _______ _______ _______ _____ _____    ______ ____
DOCKED: ROOT
DOCKED: ATOM      1  C   UNK     0      30.994 -17.046   9.426 -0.68 +0.00    +0.032 C 
DOCKED: ENDROOT
DOCKED: BRANCH   1   2
DOCKED: ATOM      2  C   UNK     0      31.208 -18.157  10.466 -0.54 +0.00    +0.041 C 
DOCKED: BRANCH   2   3
DOCKED: ATOM      3  C   UNK     0      31.663 -17.657  11.823 -0.66 -0.00    -0.068 C 
DOCKED: ATOM      4  C   UNK     0      32.966 -17.411  12.046 -0.62 +0.00    +0.019 C 
DOCKED: BRANCH   3   5
DOCKED: ATOM      5  C   UNK     0      30.695 -17.408  12.884 -0.75 -0.00    -0.004 C 
DOCKED: ATOM      6  C   UNK     0      30.548 -16.285  13.597 -0.68 +0.00    +0.012 C 
DOCKED: ENDBRANCH   3   5
DOCKED: ENDBRANCH   2   3
DOCKED: ENDBRANCH   1   2
DOCKED: BRANCH   1   7
DOCKED: ATOM      7  C   UNK     0      30.207 -15.886   9.971 -0.53 -0.00    -0.024 C 
DOCKED: ATOM      8  C   UNK     0      28.940 -15.884  10.425 -0.46 -0.00    -0.091 C 
DOCKED: ATOM      9  C   UNK     0      28.323 -14.615  10.953 -0.32 +0.00    +0.042 C 
DOCKED: ATOM     10  C   UNK     0      28.023 -17.074  10.448 -0.59 +0.00    +0.042 C 
DOCKED: ENDBRANCH   1   7
DOCKED: TORSDOF 4
DOCKED: TER
DOCKED: ENDMDL
________________________________________________________________________________


	BEGINNING GENETIC ALGORITHM DOCKING 5 of 10
Run: 5 Seed: 801431917 1612469198 [ Run 5 of 10 GA/GALS ]
Beginning LAMARCKIAN GENETIC ALGORITHM (LGA), with a maximum of 2500000 energy evaluations.

Final-Value: -6.639


	FINAL GENETIC ALGORITHM DOCKED STATE
	_______________________________________________


Detailed state:  trans -20.489 -1.788 11.874 quatxyzw 0.608177 -0.178688 0.762137 0.131678 center 0.000 0.000 0.000 ntor 4 -120.4547 -2.4295 20.6899 -0.3383
State:	-20.489  -1.788  11.874   0.614 -0.180  0.769 164.867   -120.45   -2.43   20.69   -0.34

DOCKED: MODEL        5
DOCKED: USER    Run = 5
DOCKED: USER    DPF = myrcene.dpf
DOCKED: USER  
DOCKED: USER    Estimated Free Energy of Binding    =   -5.26 kcal/mol  [=(1)+(2)+(3)-(4)]
DOCKED: USER    Estimated Inhibition Constant, Ki   =  139.29 uM (micromolar)  [Temperature = 298.15 K]
DOCKED: USER    
DOCKED: USER    (1) Final Intermolecular Energy     =   -6.19 kcal/mol
DOCKED: USER        vdW + Hbond + desolv Energy     =   -6.19 kcal/mol
DOCKED: USER        Electrostatic Energy            =   -0.00 kcal/mol
DOCKED: USER    (2) Final Total Internal Energy     =   -0.45 kcal/mol
DOCKED: USER    (3) Torsional Free Energy           =   +1.19 kcal/mol
DOCKED: USER    (4) Unbound System's Energy         =   -0.19 kcal/mol
DOCKED: USER    
DOCKED: USER    
DOCKED: USER    NEWDPF move myrcene.pdbqt
DOCKED: USER    NEWDPF about 0.000000 0.000000 0.000000
DOCKED: USER    NEWDPF tran0 -20.488889 -1.787542 11.873553
DOCKED: USER    NEWDPF quaternion0 0.608177 -0.178688 0.762137 0.131678
DOCKED: USER    NEWDPF axisangle0 0.613519 -0.180257 0.768831 164.866826
DOCKED: USER    NEWDPF quat0 0.613519 -0.180257 0.768831 164.866826
DOCKED: USER    NEWDPF dihe0 -120.45 -2.43 20.69 -0.34 
DOCKED: USER  keepresnum = 1 
DOCKED: USER  
DOCKED: REMARK  4 active torsions:
DOCKED: REMARK  status: ('A' for Active; 'I' for Inactive)
DOCKED: REMARK    1  A    between atoms: C_1  and  C_2 
DOCKED: REMARK    2  A    between atoms: C_1  and  C_3 
DOCKED: REMARK    3  A    between atoms: C_2  and  C_5 
DOCKED: REMARK    4  A    between atoms: C_5  and  C_8 
DOCKED: USER                              x       y       z     vdW  Elec       q    Type
DOCKED: USER                           _______ _______ _______ _____ _____    ______ ____
DOCKED: ROOT
DOCKED: ATOM      1  C   UNK     0     -18.976  -1.963  12.005 -0.70 +0.00    +0.032 C 
DOCKED: ENDROOT
DOCKED: BRANCH   1   2
DOCKED: ATOM      2  C   UNK     0     -19.576  -1.728  13.400 -0.64 +0.00    +0.041 C 
DOCKED: BRANCH   2   3
DOCKED: ATOM      3  C   UNK     0     -21.090  -1.799  13.444 -0.51 -0.00    -0.068 C 
DOCKED: ATOM      4  C   UNK     0     -21.817  -0.671  13.355 -0.52 +0.00    +0.019 C 
DOCKED: BRANCH   3   5
DOCKED: ATOM      5  C   UNK     0     -21.770  -3.083  13.551 -0.59 -0.00    -0.004 C 
DOCKED: ATOM      6  C   UNK     0     -22.630  -3.617  12.674 -0.66 +0.00    +0.012 C 
DOCKED: ENDBRANCH   3   5
DOCKED: ENDBRANCH   2   3
DOCKED: ENDBRANCH   1   2
DOCKED: BRANCH   1   7
DOCKED: ATOM      7  C   UNK     0     -19.394  -0.915  11.010 -0.70 -0.00    -0.024 C 
DOCKED: ATOM      8  C   UNK     0     -20.377  -0.989  10.093 -0.60 -0.00    -0.091 C 
DOCKED: ATOM      9  C   UNK     0     -20.661   0.181   9.188 -0.62 +0.00    +0.042 C 
DOCKED: ATOM     10  C   UNK     0     -21.258  -2.183   9.857 -0.66 +0.00    +0.042 C 
DOCKED: ENDBRANCH   1   7
DOCKED: TORSDOF 4
DOCKED: TER
DOCKED: ENDMDL
________________________________________________________________________________


	BEGINNING GENETIC ALGORITHM DOCKING 6 of 10
Run: 6 Seed: 123757560 213862799 [ Run 6 of 10 GA/GALS ]
Beginning LAMARCKIAN GENETIC ALGORITHM (LGA), with a maximum of 2500000 energy evaluations.

Final-Value: -6.657


	FINAL GENETIC ALGORITHM DOCKED STATE
	_______________________________________________


Detailed state:  trans -22.736 -1.769 9.755 quatxyzw 0.568541 -0.643619 0.463748 0.217839 center 0.000 0.000 0.000 ntor 4 109.2008 -158.6123 -95.1554 -84.9680
State:	-22.736  -1.769   9.755   0.583 -0.659  0.475 154.836    109.20 -158.61  -95.16  -84.97

DOCKED: MODEL        6
DOCKED: USER    Run = 6
DOCKED: USER    DPF = myrcene.dpf
DOCKED: USER  
DOCKED: USER    Estimated Free Energy of Binding    =   -5.28 kcal/mol  [=(1)+(2)+(3)-(4)]
DOCKED: USER    Estimated Inhibition Constant, Ki   =  135.28 uM (micromolar)  [Temperature = 298.15 K]
DOCKED: USER    
DOCKED: USER    (1) Final Intermolecular Energy     =   -6.25 kcal/mol
DOCKED: USER        vdW + Hbond + desolv Energy     =   -6.25 kcal/mol
DOCKED: USER        Electrostatic Energy            =   -0.00 kcal/mol
DOCKED: USER    (2) Final Total Internal Energy     =   -0.41 kcal/mol
DOCKED: USER    (3) Torsional Free Energy           =   +1.19 kcal/mol
DOCKED: USER    (4) Unbound System's Energy         =   -0.19 kcal/mol
DOCKED: USER    
DOCKED: USER    
DOCKED: USER    NEWDPF move myrcene.pdbqt
DOCKED: USER    NEWDPF about 0.000000 0.000000 0.000000
DOCKED: USER    NEWDPF tran0 -22.735611 -1.769177 9.754982
DOCKED: USER    NEWDPF quaternion0 0.568541 -0.643619 0.463748 0.217839
DOCKED: USER    NEWDPF axisangle0 0.582531 -0.659456 0.475159 154.835671
DOCKED: USER    NEWDPF quat0 0.582531 -0.659456 0.475159 154.835671
DOCKED: USER    NEWDPF dihe0 109.20 -158.61 -95.16 -84.97 
DOCKED: USER  keepresnum = 1 
DOCKED: USER  
DOCKED: REMARK  4 active torsions:
DOCKED: REMARK  status: ('A' for Active; 'I' for Inactive)
DOCKED: REMARK    1  A    between atoms: C_1  and  C_2 
DOCKED: REMARK    2  A    between atoms: C_1  and  C_3 
DOCKED: REMARK    3  A    between atoms: C_2  and  C_5 
DOCKED: REMARK    4  A    between atoms: C_5  and  C_8 
DOCKED: USER                              x       y       z     vdW  Elec       q    Type
DOCKED: USER                           _______ _______ _______ _____ _____    ______ ____
DOCKED: ROOT
DOCKED: ATOM      1  C   UNK     0     -21.510  -2.164   8.932 -0.65 +0.00    +0.032 C 
DOCKED: ENDROOT
DOCKED: BRANCH   1   2
DOCKED: ATOM      2  C   UNK     0     -21.682  -3.166  10.084 -0.70 +0.00    +0.041 C 
DOCKED: BRANCH   2   3
DOCKED: ATOM      3  C   UNK     0     -21.302  -2.618  11.445 -0.63 -0.00    -0.068 C 
DOCKED: ATOM      4  C   UNK     0     -22.258  -2.346  12.351 -0.62 +0.00    +0.019 C 
DOCKED: BRANCH   3   5
DOCKED: ATOM      5  C   UNK     0     -19.903  -2.410  11.796 -0.67 -0.00    -0.004 C 
DOCKED: ATOM      6  C   UNK     0     -19.278  -1.238  11.968 -0.72 +0.00    +0.012 C 
DOCKED: ENDBRANCH   3   5
DOCKED: ENDBRANCH   2   3
DOCKED: ENDBRANCH   1   2
DOCKED: BRANCH   1   7
DOCKED: ATOM      7  C   UNK     0     -21.507  -0.735   9.401 -0.57 -0.00    -0.024 C 
DOCKED: ATOM      8  C   UNK     0     -20.809   0.301   8.899 -0.57 -0.00    -0.091 C 
DOCKED: ATOM      9  C   UNK     0     -20.953   1.676   9.497 -0.49 +0.00    +0.042 C 
DOCKED: ATOM     10  C   UNK     0     -19.841   0.223   7.753 -0.63 +0.00    +0.042 C 
DOCKED: ENDBRANCH   1   7
DOCKED: TORSDOF 4
DOCKED: TER
DOCKED: ENDMDL
________________________________________________________________________________


	BEGINNING GENETIC ALGORITHM DOCKING 7 of 10
Run: 7 Seed: 985377605 1319992811 [ Run 7 of 10 GA/GALS ]
Beginning LAMARCKIAN GENETIC ALGORITHM (LGA), with a maximum of 2500000 energy evaluations.

Final-Value: -6.663


	FINAL GENETIC ALGORITHM DOCKED STATE
	_______________________________________________


Detailed state:  trans -19.738 -0.172 12.293 quatxyzw -0.395544 -0.790433 0.259496 0.389131 center 0.000 0.000 0.000 ntor 4 -140.3781 -11.3074 -87.9772 -123.4017
State:	-19.738  -0.172  12.293  -0.429 -0.858  0.282 134.199   -140.38  -11.31  -87.98 -123.40

DOCKED: MODEL        7
DOCKED: USER    Run = 7
DOCKED: USER    DPF = myrcene.dpf
DOCKED: USER  
DOCKED: USER    Estimated Free Energy of Binding    =   -5.28 kcal/mol  [=(1)+(2)+(3)-(4)]
DOCKED: USER    Estimated Inhibition Constant, Ki   =  133.74 uM (micromolar)  [Temperature = 298.15 K]
DOCKED: USER    
DOCKED: USER    (1) Final Intermolecular Energy     =   -6.34 kcal/mol
DOCKED: USER        vdW + Hbond + desolv Energy     =   -6.34 kcal/mol
DOCKED: USER        Electrostatic Energy            =   +0.00 kcal/mol
DOCKED: USER    (2) Final Total Internal Energy     =   -0.32 kcal/mol
DOCKED: USER    (3) Torsional Free Energy           =   +1.19 kcal/mol
DOCKED: USER    (4) Unbound System's Energy         =   -0.19 kcal/mol
DOCKED: USER    
DOCKED: USER    
DOCKED: USER    NEWDPF move myrcene.pdbqt
DOCKED: USER    NEWDPF about 0.000000 0.000000 0.000000
DOCKED: USER    NEWDPF tran0 -19.737902 -0.171501 12.292800
DOCKED: USER    NEWDPF quaternion0 -0.395544 -0.790433 0.259496 0.389131
DOCKED: USER    NEWDPF axisangle0 -0.429387 -0.858063 0.281699 134.199105
DOCKED: USER    NEWDPF quat0 -0.429387 -0.858063 0.281699 134.199105
DOCKED: USER    NEWDPF dihe0 -140.38 -11.31 -87.98 -123.40 
DOCKED: USER  keepresnum = 1 
DOCKED: USER  
DOCKED: REMARK  4 active torsions:
DOCKED: REMARK  status: ('A' for Active; 'I' for Inactive)
DOCKED: REMARK    1  A    between atoms: C_1  and  C_2 
DOCKED: REMARK    2  A    between atoms: C_1  and  C_3 
DOCKED: REMARK    3  A    between atoms: C_2  and  C_5 
DOCKED: REMARK    4  A    between atoms: C_5  and  C_8 
DOCKED: USER                              x       y       z     vdW  Elec       q    Type
DOCKED: USER                           _______ _______ _______ _____ _____    ______ ____
DOCKED: ROOT
DOCKED: ATOM      1  C   UNK     0     -18.994  -1.285  11.555 -0.70 +0.00    +0.032 C 
DOCKED: ENDROOT
DOCKED: BRANCH   1   2
DOCKED: ATOM      2  C   UNK     0     -20.284  -0.952  10.789 -0.67 +0.00    +0.041 C 
DOCKED: BRANCH   2   3
DOCKED: ATOM      3  C   UNK     0     -21.321  -2.057  10.810 -0.63 -0.00    -0.068 C 
DOCKED: ATOM      4  C   UNK     0     -21.510  -2.820   9.719 -0.70 +0.00    +0.019 C 
DOCKED: BRANCH   3   5
DOCKED: ATOM      5  C   UNK     0     -22.096  -2.325  12.015 -0.63 -0.00    -0.004 C 
DOCKED: ATOM      6  C   UNK     0     -22.424  -3.523  12.516 -0.65 +0.00    +0.012 C 
DOCKED: ENDBRANCH   3   5
DOCKED: ENDBRANCH   2   3
DOCKED: ENDBRANCH   1   2
DOCKED: BRANCH   1   7
DOCKED: ATOM      7  C   UNK     0     -19.240  -1.564  13.012 -0.68 -0.00    -0.024 C 
DOCKED: ATOM      8  C   UNK     0     -18.511  -2.332  13.844 -0.60 -0.00    -0.091 C 
DOCKED: ATOM      9  C   UNK     0     -18.909  -2.478  15.289 -0.48 +0.00    +0.042 C 
DOCKED: ATOM     10  C   UNK     0     -17.286  -3.110  13.458 -0.59 +0.00    +0.042 C 
DOCKED: ENDBRANCH   1   7
DOCKED: TORSDOF 4
DOCKED: TER
DOCKED: ENDMDL
________________________________________________________________________________


	BEGINNING GENETIC ALGORITHM DOCKING 8 of 10
Run: 8 Seed: 1063450843 626059654 [ Run 8 of 10 GA/GALS ]
Beginning LAMARCKIAN GENETIC ALGORITHM (LGA), with a maximum of 2500000 energy evaluations.

Final-Value: -6.714


	FINAL GENETIC ALGORITHM DOCKED STATE
	_______________________________________________


Detailed state:  trans -18.855 -2.291 10.770 quatxyzw -0.059940 -0.332444 -0.634819 -0.694905 center 0.000 0.000 0.000 ntor 4 -56.1277 -172.3502 -139.0222 -120.3913
State:	-18.855  -2.291  10.770  -0.083 -0.462 -0.883 -91.961    -56.13 -172.35 -139.02 -120.39

DOCKED: MODEL        8
DOCKED: USER    Run = 8
DOCKED: USER    DPF = myrcene.dpf
DOCKED: USER  
DOCKED: USER    Estimated Free Energy of Binding    =   -5.34 kcal/mol  [=(1)+(2)+(3)-(4)]
DOCKED: USER    Estimated Inhibition Constant, Ki   =  122.79 uM (micromolar)  [Temperature = 298.15 K]
DOCKED: USER    
DOCKED: USER    (1) Final Intermolecular Energy     =   -6.31 kcal/mol
DOCKED: USER        vdW + Hbond + desolv Energy     =   -6.31 kcal/mol
DOCKED: USER        Electrostatic Energy            =   +0.00 kcal/mol
DOCKED: USER    (2) Final Total Internal Energy     =   -0.40 kcal/mol
DOCKED: USER    (3) Torsional Free Energy           =   +1.19 kcal/mol
DOCKED: USER    (4) Unbound System's Energy         =   -0.19 kcal/mol
DOCKED: USER    
DOCKED: USER    
DOCKED: USER    NEWDPF move myrcene.pdbqt
DOCKED: USER    NEWDPF about 0.000000 0.000000 0.000000
DOCKED: USER    NEWDPF tran0 -18.854542 -2.291094 10.769881
DOCKED: USER    NEWDPF quaternion0 -0.059940 -0.332444 -0.634819 -0.694905
DOCKED: USER    NEWDPF axisangle0 -0.083354 -0.462304 -0.882795 -91.960639
DOCKED: USER    NEWDPF quat0 -0.083354 -0.462304 -0.882795 -91.960639
DOCKED: USER    NEWDPF dihe0 -56.13 -172.35 -139.02 -120.39 
DOCKED: USER  keepresnum = 1 
DOCKED: USER  
DOCKED: REMARK  4 active torsions:
DOCKED: REMARK  status: ('A' for Active; 'I' for Inactive)
DOCKED: REMARK    1  A    between atoms: C_1  and  C_2 
DOCKED: REMARK    2  A    between atoms: C_1  and  C_3 
DOCKED: REMARK    3  A    between atoms: C_2  and  C_5 
DOCKED: REMARK    4  A    between atoms: C_5  and  C_8 
DOCKED: USER                              x       y       z     vdW  Elec       q    Type
DOCKED: USER                           _______ _______ _______ _____ _____    ______ ____
DOCKED: ROOT
DOCKED: ATOM      1  C   UNK     0     -19.367  -1.381  11.886 -0.71 +0.00    +0.032 C 
DOCKED: ENDROOT
DOCKED: BRANCH   1   2
DOCKED: ATOM      2  C   UNK     0     -20.013  -2.768  12.034 -0.60 +0.00    +0.041 C 
DOCKED: BRANCH   2   3
DOCKED: ATOM      3  C   UNK     0     -21.490  -2.803  11.695 -0.63 -0.00    -0.068 C 
DOCKED: ATOM      4  C   UNK     0     -21.886  -3.150  10.458 -0.73 +0.00    +0.019 C 
DOCKED: BRANCH   3   5
DOCKED: ATOM      5  C   UNK     0     -22.491  -2.494  12.708 -0.61 -0.00    -0.004 C 
DOCKED: ATOM      6  C   UNK     0     -22.631  -3.070  13.909 -0.60 +0.00    +0.012 C 
DOCKED: ENDBRANCH   3   5
DOCKED: ENDBRANCH   2   3
DOCKED: ENDBRANCH   1   2
DOCKED: BRANCH   1   7
DOCKED: ATOM      7  C   UNK     0     -19.523  -0.813  10.503 -0.66 -0.00    -0.024 C 
DOCKED: ATOM      8  C   UNK     0     -20.392   0.129  10.087 -0.61 -0.00    -0.091 C 
DOCKED: ATOM      9  C   UNK     0     -20.387   0.587   8.652 -0.62 +0.00    +0.042 C 
DOCKED: ATOM     10  C   UNK     0     -21.428   0.795  10.946 -0.55 +0.00    +0.042 C 
DOCKED: ENDBRANCH   1   7
DOCKED: TORSDOF 4
DOCKED: TER
DOCKED: ENDMDL
________________________________________________________________________________


	BEGINNING GENETIC ALGORITHM DOCKING 9 of 10
Run: 9 Seed: 221778493 351091414 [ Run 9 of 10 GA/GALS ]
Beginning LAMARCKIAN GENETIC ALGORITHM (LGA), with a maximum of 2500000 energy evaluations.

Final-Value: -6.285


	FINAL GENETIC ALGORITHM DOCKED STATE
	_______________________________________________


Detailed state:  trans 4.127 17.552 13.453 quatxyzw -0.681169 0.435884 0.445925 -0.383620 center 0.000 0.000 0.000 ntor 4 162.8579 26.2823 11.2561 104.7744
State:	  4.127  17.552  13.453  -0.738  0.472  0.483 -134.884    162.86   26.28   11.26  104.77

DOCKED: MODEL        9
DOCKED: USER    Run = 9
DOCKED: USER    DPF = myrcene.dpf
DOCKED: USER  
DOCKED: USER    Estimated Free Energy of Binding    =   -4.91 kcal/mol  [=(1)+(2)+(3)-(4)]
DOCKED: USER    Estimated Inhibition Constant, Ki   =  253.37 uM (micromolar)  [Temperature = 298.15 K]
DOCKED: USER    
DOCKED: USER    (1) Final Intermolecular Energy     =   -6.06 kcal/mol
DOCKED: USER        vdW + Hbond + desolv Energy     =   -6.06 kcal/mol
DOCKED: USER        Electrostatic Energy            =   -0.00 kcal/mol
DOCKED: USER    (2) Final Total Internal Energy     =   -0.23 kcal/mol
DOCKED: USER    (3) Torsional Free Energy           =   +1.19 kcal/mol
DOCKED: USER    (4) Unbound System's Energy         =   -0.19 kcal/mol
DOCKED: USER    
DOCKED: USER    
DOCKED: USER    NEWDPF move myrcene.pdbqt
DOCKED: USER    NEWDPF about 0.000000 0.000000 0.000000
DOCKED: USER    NEWDPF tran0 4.127358 17.552201 13.452757
DOCKED: USER    NEWDPF quaternion0 -0.681169 0.435884 0.445925 -0.383620
DOCKED: USER    NEWDPF axisangle0 -0.737602 0.471996 0.482869 -134.883822
DOCKED: USER    NEWDPF quat0 -0.737602 0.471996 0.482869 -134.883822
DOCKED: USER    NEWDPF dihe0 162.86 26.28 11.26 104.77 
DOCKED: USER  keepresnum = 1 
DOCKED: USER  
DOCKED: REMARK  4 active torsions:
DOCKED: REMARK  status: ('A' for Active; 'I' for Inactive)
DOCKED: REMARK    1  A    between atoms: C_1  and  C_2 
DOCKED: REMARK    2  A    between atoms: C_1  and  C_3 
DOCKED: REMARK    3  A    between atoms: C_2  and  C_5 
DOCKED: REMARK    4  A    between atoms: C_5  and  C_8 
DOCKED: USER                              x       y       z     vdW  Elec       q    Type
DOCKED: USER                           _______ _______ _______ _____ _____    ______ ____
DOCKED: ROOT
DOCKED: ATOM      1  C   UNK     0       3.608  18.950  13.118 -0.65 +0.00    +0.032 C 
DOCKED: ENDROOT
DOCKED: BRANCH   1   2
DOCKED: ATOM      2  C   UNK     0       4.734  18.587  12.138 -0.70 +0.00    +0.041 C 
DOCKED: BRANCH   2   3
DOCKED: ATOM      3  C   UNK     0       4.290  18.482  10.693 -0.68 -0.00    -0.068 C 
DOCKED: ATOM      4  C   UNK     0       3.449  17.501  10.319 -0.51 +0.00    +0.019 C 
DOCKED: BRANCH   3   5
DOCKED: ATOM      5  C   UNK     0       4.739  19.455   9.706 -0.82 -0.00    -0.004 C 
DOCKED: ATOM      6  C   UNK     0       4.680  19.340   8.373 -0.66 +0.00    +0.012 C 
DOCKED: ENDBRANCH   3   5
DOCKED: ENDBRANCH   2   3
DOCKED: ENDBRANCH   1   2
DOCKED: BRANCH   1   7
DOCKED: ATOM      7  C   UNK     0       4.008  18.766  14.556 -0.63 -0.00    -0.024 C 
DOCKED: ATOM      8  C   UNK     0       3.603  17.809  15.413 -0.51 -0.00    -0.091 C 
DOCKED: ATOM      9  C   UNK     0       4.133  17.778  16.822 -0.47 -0.00    +0.042 C 
DOCKED: ATOM     10  C   UNK     0       2.617  16.721  15.098 -0.43 +0.00    +0.042 C 
DOCKED: ENDBRANCH   1   7
DOCKED: TORSDOF 4
DOCKED: TER
DOCKED: ENDMDL
________________________________________________________________________________


	BEGINNING GENETIC ALGORITHM DOCKING 10 of 10
Run: 10 Seed: 2058410958 635148021 [ Run 10 of 10 GA/GALS ]
Beginning LAMARCKIAN GENETIC ALGORITHM (LGA), with a maximum of 2500000 energy evaluations.

Final-Value: -6.698


	FINAL GENETIC ALGORITHM DOCKED STATE
	_______________________________________________


Detailed state:  trans -19.166 -0.211 10.599 quatxyzw 0.195591 -0.329283 0.113750 -0.916721 center 0.000 0.000 0.000 ntor 4 78.0231 -97.8735 -140.3156 165.0382
State:	-19.166  -0.211  10.599   0.490 -0.824  0.285 -47.097     78.02  -97.87 -140.32  165.04

DOCKED: MODEL       10
DOCKED: USER    Run = 10
DOCKED: USER    DPF = myrcene.dpf
DOCKED: USER  
DOCKED: USER    Estimated Free Energy of Binding    =   -5.32 kcal/mol  [=(1)+(2)+(3)-(4)]
DOCKED: USER    Estimated Inhibition Constant, Ki   =  126.22 uM (micromolar)  [Temperature = 298.15 K]
DOCKED: USER    
DOCKED: USER    (1) Final Intermolecular Energy     =   -6.35 kcal/mol
DOCKED: USER        vdW + Hbond + desolv Energy     =   -6.35 kcal/mol
DOCKED: USER        Electrostatic Energy            =   -0.00 kcal/mol
DOCKED: USER    (2) Final Total Internal Energy     =   -0.35 kcal/mol
DOCKED: USER    (3) Torsional Free Energy           =   +1.19 kcal/mol
DOCKED: USER    (4) Unbound System's Energy         =   -0.19 kcal/mol
DOCKED: USER    
DOCKED: USER    
DOCKED: USER    NEWDPF move myrcene.pdbqt
DOCKED: USER    NEWDPF about 0.000000 0.000000 0.000000
DOCKED: USER    NEWDPF tran0 -19.166336 -0.210873 10.598672
DOCKED: USER    NEWDPF quaternion0 0.195591 -0.329283 0.113750 -0.916721
DOCKED: USER    NEWDPF axisangle0 0.489555 -0.824181 0.284712 -47.097323
DOCKED: USER    NEWDPF quat0 0.489555 -0.824181 0.284712 -47.097323
DOCKED: USER    NEWDPF dihe0 78.02 -97.87 -140.32 165.04 
DOCKED: USER  keepresnum = 1 
DOCKED: USER  
DOCKED: REMARK  4 active torsions:
DOCKED: REMARK  status: ('A' for Active; 'I' for Inactive)
DOCKED: REMARK    1  A    between atoms: C_1  and  C_2 
DOCKED: REMARK    2  A    between atoms: C_1  and  C_3 
DOCKED: REMARK    3  A    between atoms: C_2  and  C_5 
DOCKED: REMARK    4  A    between atoms: C_5  and  C_8 
DOCKED: USER                              x       y       z     vdW  Elec       q    Type
DOCKED: USER                           _______ _______ _______ _____ _____    ______ ____
DOCKED: ROOT
DOCKED: ATOM      1  C   UNK     0     -20.157  -0.813  11.595 -0.66 +0.00    +0.032 C 
DOCKED: ENDROOT
DOCKED: BRANCH   1   2
DOCKED: ATOM      2  C   UNK     0     -18.739  -1.289  11.949 -0.68 +0.00    +0.041 C 
DOCKED: BRANCH   2   3
DOCKED: ATOM      3  C   UNK     0     -18.663  -2.132  13.205 -0.65 -0.00    -0.068 C 
DOCKED: ATOM      4  C   UNK     0     -17.528  -2.790  13.505 -0.63 +0.00    +0.019 C 
DOCKED: BRANCH   3   5
DOCKED: ATOM      5  C   UNK     0     -19.799  -2.214  14.114 -0.60 -0.00    -0.004 C 
DOCKED: ATOM      6  C   UNK     0     -20.897  -2.966  13.969 -0.52 +0.00    +0.012 C 
DOCKED: ENDBRANCH   3   5
DOCKED: ENDBRANCH   2   3
DOCKED: ENDBRANCH   1   2
DOCKED: BRANCH   1   7
DOCKED: ATOM      7  C   UNK     0     -20.506  -1.053  10.152 -0.65 -0.00    -0.024 C 
DOCKED: ATOM      8  C   UNK     0     -21.254  -2.046   9.635 -0.60 -0.00    -0.091 C 
DOCKED: ATOM      9  C   UNK     0     -21.511  -2.111   8.152 -0.63 +0.00    +0.042 C 
DOCKED: ATOM     10  C   UNK     0     -21.882  -3.162  10.421 -0.71 +0.00    +0.042 C 
DOCKED: ENDBRANCH   1   7
DOCKED: TORSDOF 4
DOCKED: TER
DOCKED: ENDMDL
________________________________________________________________________________

DPF> analysis                             # perform a ranked cluster analysis


		CLUSTER ANALYSIS OF CONFORMATIONS
		_________________________________

Number of conformations = 10

RMSD cluster analysis will be performed using the ligand atoms only (10 / 10 total atoms).

Outputting structurally similar clusters, ranked in order of increasing energy.


________________________________________________________________________________

Number of distinct conformational clusters found = 3,  out of 10 runs,
Using an rmsd-tolerance of 2.0 A


	CLUSTERING HISTOGRAM
	____________________

________________________________________________________________________________
     |           |     |           |     |                                    
Clus | Lowest    | Run | Mean      | Num | Histogram                          
-ter | Binding   |     | Binding   | in  |                                    
Rank | Energy    |     | Energy    | Clus|    5    10   15   20   25   30   35
_____|___________|_____|___________|_____|____:____|____:____|____:____|____:___
   1 |     -5.40 |   1 |     -5.31 |   7 |#######
   2 |     -4.97 |   3 |     -4.94 |   2 |##
   3 |     -4.88 |   4 |     -4.88 |   1 |#
_____|___________|_____|___________|_____|______________________________________


Number of multi-member conformational clusters found = 2, out of 10 runs.

	RMSD TABLE
	__________

_____________________________________________________________________
     |      |      |           |         |                 |
Rank | Sub- | Run  | Binding   | Cluster | Reference       | Grep
     | Rank |      | Energy    | RMSD    | RMSD            | Pattern
_____|______|______|___________|_________|_________________|___________
   1      1      1       -5.40      0.00     20.44           RANKING
   1      2      8       -5.34      1.11     21.48           RANKING
   1      3     10       -5.32      1.27     21.05           RANKING
   1      4      2       -5.32      1.03     21.09           RANKING
   1      5      7       -5.28      1.37     21.41           RANKING
   1      6      6       -5.28      1.11     20.84           RANKING
   1      7      5       -5.26      1.41     21.64           RANKING
   2      1      3       -4.97      0.00     21.36           RANKING
   2      2      9       -4.91      1.06     21.33           RANKING
   3      1      4       -4.88      0.00     34.86           RANKING
_______________________________________________________________________



	INFORMATION ENTROPY ANALYSIS FOR THIS CLUSTERING
	________________________________________________


Information entropy for this clustering = 0.35  (rmstol = 2.00 Angstrom)

_______________________________________________________________________


	STATISTICAL MECHANICAL ANALYSIS
	_______________________________


Partition function, Q =    10.09            at Temperature, T = 298.15 K
Free energy,        A ~ -1369.43 kcal/mol   at Temperature, T = 298.15 K
Internal energy,    U =    -5.19 kcal/mol   at Temperature, T = 298.15 K
Entropy,            S =     4.58 kcal/mol/K at Temperature, T = 298.15 K

_______________________________________________________________________


	LOWEST ENERGY DOCKED CONFORMATION from EACH CLUSTER
	___________________________________________________



Keeping original residue number (specified in the input PDBQ file) for outputting.

MODEL        1
USER    Run = 1
USER    Cluster Rank = 1
USER    Number of conformations in this cluster = 7
USER  
USER    RMSD from reference structure       = 20.437 A
USER  
USER    Estimated Free Energy of Binding    =   -5.40 kcal/mol  [=(1)+(2)+(3)-(4)]
USER    Estimated Inhibition Constant, Ki   =  110.75 uM (micromolar)  [Temperature = 298.15 K]
USER    
USER    (1) Final Intermolecular Energy     =   -6.43 kcal/mol
USER        vdW + Hbond + desolv Energy     =   -6.43 kcal/mol
USER        Electrostatic Energy            =   -0.00 kcal/mol
USER    (2) Final Total Internal Energy     =   -0.35 kcal/mol
USER    (3) Torsional Free Energy           =   +1.19 kcal/mol
USER    (4) Unbound System's Energy         =   -0.19 kcal/mol
USER    
USER    
USER  
USER    DPF = myrcene.dpf
USER    NEWDPF move	myrcene.pdbqt
USER    NEWDPF about	0.000000 0.000000 0.000000
USER    NEWDPF tran0	-18.877184 0.244733 10.211328
USER    NEWDPF axisangle0	0.431625 -0.892770 -0.129079 -78.629252
USER    NEWDPF quaternion0	0.273468 -0.565640 -0.081782 -0.773678
USER    NEWDPF dihe0	28.22 -30.02 -152.29 141.54 
USER  
USER                              x       y       z    vdW   Elec        q     RMS 
ATOM      1  C   UNK     0     -20.341  -0.128  10.444 -0.66 +0.00    +0.032    20.437
ATOM      2  C   UNK     0     -19.445  -1.241  11.009 -0.67 +0.00    +0.041    20.437
ATOM      3  C   UNK     0     -20.069  -2.021  12.149 -0.62 -0.00    -0.068    20.437
ATOM      4  C   UNK     0     -19.440  -2.092  13.336 -0.66 +0.00    +0.019    20.437
ATOM      5  C   UNK     0     -21.363  -2.670  11.985 -0.65 -0.00    -0.004    20.437
ATOM      6  C   UNK     0     -21.884  -3.159  10.852 -0.72 +0.00    +0.012    20.437
ATOM      7  C   UNK     0     -20.009   0.217   9.019 -0.66 -0.00    -0.024    20.437
ATOM      8  C   UNK     0     -20.502  -0.337   7.895 -0.57 -0.00    -0.091    20.437
ATOM      9  C   UNK     0     -20.058   0.159   6.544 -0.60 +0.00    +0.042    20.437
ATOM     10  C   UNK     0     -21.492  -1.466   7.845 -0.62 +0.00    +0.042    20.437
TER
ENDMDL
MODEL        3
USER    Run = 3
USER    Cluster Rank = 2
USER    Number of conformations in this cluster = 2
USER  
USER    RMSD from reference structure       = 21.363 A
USER  
USER    Estimated Free Energy of Binding    =   -4.97 kcal/mol  [=(1)+(2)+(3)-(4)]
USER    Estimated Inhibition Constant, Ki   =  227.66 uM (micromolar)  [Temperature = 298.15 K]
USER    
USER    (1) Final Intermolecular Energy     =   -6.08 kcal/mol
USER        vdW + Hbond + desolv Energy     =   -6.08 kcal/mol
USER        Electrostatic Energy            =   -0.00 kcal/mol
USER    (2) Final Total Internal Energy     =   -0.27 kcal/mol
USER    (3) Torsional Free Energy           =   +1.19 kcal/mol
USER    (4) Unbound System's Energy         =   -0.19 kcal/mol
USER    
USER    
USER  
USER    DPF = myrcene.dpf
USER    NEWDPF move	myrcene.pdbqt
USER    NEWDPF about	0.000000 0.000000 0.000000
USER    NEWDPF tran0	4.144685 19.648080 12.428446
USER    NEWDPF axisangle0	0.481357 0.709898 -0.514140 -103.765644
USER    NEWDPF quaternion0	0.378707 0.558512 -0.404500 -0.617272
USER    NEWDPF dihe0	89.90 15.02 -157.23 30.85 
USER  
USER                              x       y       z    vdW   Elec        q     RMS 
ATOM      1  C   UNK     0       4.789  18.292  12.717 -0.69 -0.00    +0.032    21.363
ATOM      2  C   UNK     0       3.980  18.195  11.414 -0.67 +0.00    +0.041    21.363
ATOM      3  C   UNK     0       4.130  19.394  10.499 -0.69 -0.00    -0.068    21.363
ATOM      4  C   UNK     0       3.463  20.530  10.766 -0.62 +0.00    +0.019    21.363
ATOM      5  C   UNK     0       5.019  19.340   9.345 -0.78 -0.00    -0.004    21.363
ATOM      6  C   UNK     0       4.702  18.973   8.097 -0.64 +0.00    +0.012    21.363
ATOM      7  C   UNK     0       3.986  18.852  13.858 -0.67 -0.00    -0.024    21.363
ATOM      8  C   UNK     0       3.148  18.195  14.682 -0.50 -0.00    -0.091    21.363
ATOM      9  C   UNK     0       2.440  18.929  15.790 -0.38 +0.00    +0.042    21.363
ATOM     10  C   UNK     0       2.817  16.732  14.599 -0.45 -0.00    +0.042    21.363
TER
ENDMDL
MODEL        4
USER    Run = 4
USER    Cluster Rank = 3
USER    Number of conformations in this cluster = 1
USER  
USER    RMSD from reference structure       = 34.863 A
USER  
USER    Estimated Free Energy of Binding    =   -4.88 kcal/mol  [=(1)+(2)+(3)-(4)]
USER    Estimated Inhibition Constant, Ki   =  263.42 uM (micromolar)  [Temperature = 298.15 K]
USER    
USER    (1) Final Intermolecular Energy     =   -5.84 kcal/mol
USER        vdW + Hbond + desolv Energy     =   -5.84 kcal/mol
USER        Electrostatic Energy            =   +0.00 kcal/mol
USER    (2) Final Total Internal Energy     =   -0.43 kcal/mol
USER    (3) Torsional Free Energy           =   +1.19 kcal/mol
USER    (4) Unbound System's Energy         =   -0.19 kcal/mol
USER    
USER    
USER  
USER    DPF = myrcene.dpf
USER    NEWDPF move	myrcene.pdbqt
USER    NEWDPF about	0.000000 0.000000 0.000000
USER    NEWDPF tran0	29.643625 -17.429366 10.031750
USER    NEWDPF axisangle0	0.729619 -0.523292 0.440252 131.276937
USER    NEWDPF quaternion0	0.664654 -0.476699 0.401052 0.412493
USER    NEWDPF dihe0	-128.43 9.46 56.16 -109.66 
USER  
USER                              x       y       z    vdW   Elec        q     RMS 
ATOM      1  C   UNK     0      30.994 -17.046   9.426 -0.68 +0.00    +0.032    34.863
ATOM      2  C   UNK     0      31.208 -18.157  10.466 -0.54 +0.00    +0.041    34.863
ATOM      3  C   UNK     0      31.663 -17.657  11.823 -0.66 -0.00    -0.068    34.863
ATOM      4  C   UNK     0      32.966 -17.411  12.046 -0.62 +0.00    +0.019    34.863
ATOM      5  C   UNK     0      30.695 -17.408  12.884 -0.75 -0.00    -0.004    34.863
ATOM      6  C   UNK     0      30.548 -16.285  13.597 -0.68 +0.00    +0.012    34.863
ATOM      7  C   UNK     0      30.207 -15.886   9.971 -0.53 -0.00    -0.024    34.863
ATOM      8  C   UNK     0      28.940 -15.884  10.425 -0.46 -0.00    -0.091    34.863
ATOM      9  C   UNK     0      28.323 -14.615  10.953 -0.32 +0.00    +0.042    34.863
ATOM     10  C   UNK     0      28.023 -17.074  10.448 -0.59 +0.00    +0.042    34.863
TER
ENDMDL


AVSFLD: # AVS field file
AVSFLD: #
AVSFLD: # Created by AutoDock
AVSFLD: #
AVSFLD: ndim=2           # number of dimensions in the field
AVSFLD: nspace=1         # number of physical coordinates
AVSFLD: veclen=7         # vector size
AVSFLD: dim1=10          # atoms
AVSFLD: dim2=3           # conformations
AVSFLD: data=Real       # data type (byte,integer,Real,double)
AVSFLD: field=uniform    # field coordinate layout
AVSFLD: label= x y z vdW Elec q RMS
AVSFLD: variable 1 file = myrcene.dlg.pdb filetype = ascii offset = 5 stride = 12
AVSFLD: variable 2 file = myrcene.dlg.pdb filetype = ascii offset = 6 stride = 12
AVSFLD: variable 3 file = myrcene.dlg.pdb filetype = ascii offset = 7 stride = 12
AVSFLD: variable 4 file = myrcene.dlg.pdb filetype = ascii offset = 8 stride = 12
AVSFLD: variable 5 file = myrcene.dlg.pdb filetype = ascii offset = 9 stride = 12
AVSFLD: variable 6 file = myrcene.dlg.pdb filetype = ascii offset = 10 stride = 12
AVSFLD: variable 7 file = myrcene.dlg.pdb filetype = ascii offset = 11 stride = 12
AVSFLD: # end of file

>>> Closing the docking parameter file (DPF)...
This docking finished at:			2:25 30" p.m., 05/18/2023


________________________________________________________________________________

/usr/bin/autodock4: Successful Completion on "asus-F509FB"

Real= 1m 38.17s,  CPU= 1m 37.98s,  System= 0.13s
________________________________________________________________________________

