          AutoDock 4.2 Release 4.2.6   
         (C) 1989-2012 The Scripps Research Institute
        AutoDock comes with ABSOLUTELY NO WARRANTY.
        AutoDock is free software, and you are welcome
        to redistribute it under certain conditions;
        for details type 'autodock4 -C'

                     main.cc  $Revision: 1.213 $

                   Compiled on Mar 22 2020 at 15:34:10


This file was created at:			3:05 46" p.m., 05/18/2023
                   on host:		"asus-F509FB"
Current Working Directory = "/media/asus/shityakoff/Collaborators_students/Hfid/fungi"

      ________________________________________________________________

                   SETTING UP DEFAULT PARAMETER LIBRARY
      ________________________________________________________________


Random number generator was seeded with values 12808, 1684411546.
Docking parameter file (DPF) used for this docking:		nystatin.dpf
DPF> autodock_parameter_version 4.2       # used by autodock to validate parameter set

	Autodock parameter version 4.2.
DPF> outlev 1                             # diagnostic output level

Output Level = 1  ADT-COMPATIBLE OUTPUT DURING DOCKING.
DPF> intelec                              # calculate internal electrostatics

Electrostatic energies will be calculated for all non-bonds between moving atoms.
DPF> seed pid time                        # seeds for random generator

Random number generator was seeded with values 12808, 1684411546.
DPF> ligand_types C HD N OA               # atoms types in ligand

DPF> fld receptor.mem_erg.maps.fld        # grid_data_file

Opening Grid Map Dimensions file:		receptor.mem_erg.maps.fld
Grid Point Spacing =				0.375 Angstroms

Even Number of User-specified Grid Points =	300 x-points
						300 y-points
						60 z-points

Coordinates of Central Grid Point of Maps =	(-2.010, 2.090, 9.340)
Macromolecule file used to create Grid Maps =	receptor.mem_erg.pdbqt
Grid Parameter file used to create Grid Maps =	mem_erg.gpf
Minimum coordinates in grid = (-58.260, -54.160, -1.910)
Maximum coordinates in grid = (54.240, 58.340, 20.590)

DPF> map receptor.mem_erg.C.map           # atom-specific affinity map

DPF> map receptor.mem_erg.HD.map          # atom-specific affinity map

DPF> map receptor.mem_erg.N.map           # atom-specific affinity map

DPF> map receptor.mem_erg.OA.map          # atom-specific affinity map

DPF> elecmap receptor.mem_erg.e.map       # electrostatics map

DPF> desolvmap receptor.mem_erg.d.map     # desolvation map

DPF> move nystatin.pdbqt                  # small molecule

1,4-interactions will be _ignored_ in the non-bonded internal energy calculation.

Ligand PDBQT file = "nystatin.pdbqt"

INPUT LIGAND PDBQT FILE:
________________________

INPUT-LIGAND-PDBQT: REMARK  14 active torsions:
INPUT-LIGAND-PDBQT: REMARK  status: ('A' for Active; 'I' for Inactive)
INPUT-LIGAND-PDBQT: REMARK    1  A    between atoms: C1_1  and  O1_2 
INPUT-LIGAND-PDBQT: REMARK    2  A    between atoms: O1_2  and  C3_5 
INPUT-LIGAND-PDBQT: REMARK    3  A    between atoms: C2_3  and  O3_7 
INPUT-LIGAND-PDBQT: REMARK    4  A    between atoms: C4_6  and  N1_13 
INPUT-LIGAND-PDBQT: REMARK    5  A    between atoms: C8_12  and  O4_20 
INPUT-LIGAND-PDBQT: REMARK    6  A    between atoms: C10_18  and  O5_23 
INPUT-LIGAND-PDBQT: REMARK    7  A    between atoms: C12_22  and  C15_27 
INPUT-LIGAND-PDBQT: REMARK    8  A    between atoms: C14_26  and  O6_30 
INPUT-LIGAND-PDBQT: REMARK    9  A    between atoms: C23_40  and  O10_43 
INPUT-LIGAND-PDBQT: REMARK   10  A    between atoms: C25_42  and  O11_47 
INPUT-LIGAND-PDBQT: REMARK   11  A    between atoms: C31_52  and  O12_55 
INPUT-LIGAND-PDBQT: REMARK   12  A    between atoms: C35_58  and  O13_61 
INPUT-LIGAND-PDBQT: REMARK   13  A    between atoms: C39_64  and  O14_68 
INPUT-LIGAND-PDBQT: REMARK   14  A    between atoms: C40_65  and  O15_71 
INPUT-LIGAND-PDBQT: ROOT
INPUT-LIGAND-PDBQT: HETATM    1  C3  UNK     1      36.544 -17.665   2.381  0.00  0.00     0.150 C 
INPUT-LIGAND-PDBQT: HETATM    2  C6  UNK     1      37.149 -17.936   3.771  0.00  0.00     0.068 C 
INPUT-LIGAND-PDBQT: HETATM    3  C7  UNK     1      35.075 -17.260   2.411  0.00  0.00     0.005 C 
INPUT-LIGAND-PDBQT: HETATM    4  C10 UNK     1      38.347 -18.909   3.720  0.00  0.00     0.137 C 
INPUT-LIGAND-PDBQT: HETATM    5  C11 UNK     1      34.567 -16.472   3.352  0.00  0.00    -0.002 C 
INPUT-LIGAND-PDBQT: HETATM    6  C12 UNK     1      39.163 -18.972   5.052  0.00  0.00     0.144 C 
INPUT-LIGAND-PDBQT: HETATM    7  C13 UNK     1      33.277 -16.162   3.403  0.00  0.00    -0.000 C 
INPUT-LIGAND-PDBQT: HETATM    8  C14 UNK     1      38.377 -19.267   6.368  0.00  0.00     0.142 C 
INPUT-LIGAND-PDBQT: HETATM    9  C16 UNK     1      32.716 -15.554   4.442  0.00  0.00     0.000 C 
INPUT-LIGAND-PDBQT: HETATM   10  C17 UNK     1      37.918 -17.962   7.062  0.00  0.00     0.111 C 
INPUT-LIGAND-PDBQT: HETATM   11  C18 UNK     1      31.423 -15.251   4.487  0.00  0.00     0.000 C 
INPUT-LIGAND-PDBQT: HETATM   12  C19 UNK     1      36.832 -18.166   8.103  0.00  0.00     0.131 C 
INPUT-LIGAND-PDBQT: HETATM   13  C20 UNK     1      30.845 -14.671   5.532  0.00  0.00    -0.000 C 
INPUT-LIGAND-PDBQT: HETATM   14  C21 UNK     1      35.499 -17.520   7.737  0.00  0.00     0.112 C 
INPUT-LIGAND-PDBQT: HETATM   15  O9  UNK     1      37.039 -18.800   9.173  0.00  0.00    -0.298 OA
INPUT-LIGAND-PDBQT: HETATM   16  C22 UNK     1      29.560 -14.336   5.550  0.00  0.00    -0.004 C 
INPUT-LIGAND-PDBQT: HETATM   17  C23 UNK     1      34.466 -17.533   8.884  0.00  0.00     0.153 C 
INPUT-LIGAND-PDBQT: HETATM   18  C24 UNK     1      29.001 -13.655   6.543  0.00  0.00    -0.026 C 
INPUT-LIGAND-PDBQT: HETATM   19  C25 UNK     1      33.197 -16.698   8.574  0.00  0.00     0.147 C 
INPUT-LIGAND-PDBQT: HETATM   20  C26 UNK     1      27.541 -13.231   6.483  0.00  0.00     0.031 C 
INPUT-LIGAND-PDBQT: HETATM   21  C27 UNK     1      32.282 -16.648   9.815  0.00  0.00     0.037 C 
INPUT-LIGAND-PDBQT: HETATM   22  C28 UNK     1      26.744 -13.601   7.744  0.00  0.00     0.031 C 
INPUT-LIGAND-PDBQT: HETATM   23  C29 UNK     1      30.927 -15.959   9.551  0.00  0.00     0.034 C 
INPUT-LIGAND-PDBQT: HETATM   24  C30 UNK     1      25.308 -13.102   7.673  0.00  0.00    -0.026 C 
INPUT-LIGAND-PDBQT: HETATM   25  C31 UNK     1      30.026 -16.059  10.801  0.00  0.00     0.120 C 
INPUT-LIGAND-PDBQT: HETATM   26  C32 UNK     1      24.861 -12.157   8.491  0.00  0.00    -0.004 C 
INPUT-LIGAND-PDBQT: HETATM   27  C33 UNK     1      28.704 -15.281  10.619  0.00  0.00     0.063 C 
INPUT-LIGAND-PDBQT: HETATM   28  C34 UNK     1      23.627 -11.669   8.423  0.00  0.00    -0.004 C 
INPUT-LIGAND-PDBQT: HETATM   29  C35 UNK     1      27.961 -14.999  11.949  0.00  0.00     0.123 C 
INPUT-LIGAND-PDBQT: HETATM   30  C36 UNK     1      23.189 -10.707   9.227  0.00  0.00    -0.020 C 
INPUT-LIGAND-PDBQT: HETATM   31  C37 UNK     1      26.589 -14.356  11.652  0.00  0.00     0.064 C 
INPUT-LIGAND-PDBQT: HETATM   32  C38 UNK     1      21.789 -10.122   9.087  0.00  0.00     0.033 C 
INPUT-LIGAND-PDBQT: HETATM   33  C39 UNK     1      25.805 -13.891  12.902  0.00  0.00     0.130 C 
INPUT-LIGAND-PDBQT: HETATM   34  C40 UNK     1      20.735 -10.723  10.075  0.00  0.00     0.131 C 
INPUT-LIGAND-PDBQT: HETATM   35  C41 UNK     1      21.867  -8.579   9.059  0.00  0.00     0.017 C 
INPUT-LIGAND-PDBQT: HETATM   36  C42 UNK     1      24.548 -13.129  12.444  0.00  0.00     0.142 C 
INPUT-LIGAND-PDBQT: HETATM   37  C43 UNK     1      21.035 -10.835  11.604  0.00  0.00     0.040 C 
INPUT-LIGAND-PDBQT: HETATM   38  C44 UNK     1      23.722 -12.535  13.584  0.00  0.00     0.261 C 
INPUT-LIGAND-PDBQT: HETATM   39  C45 UNK     1      21.900 -12.088  11.910  0.00  0.00     0.134 C 
INPUT-LIGAND-PDBQT: HETATM   40  C46 UNK     1      21.627  -9.543  12.205  0.00  0.00     0.015 C 
INPUT-LIGAND-PDBQT: HETATM   41  O16 UNK     1      22.530 -11.972  13.220  0.00  0.00    -0.316 OA
INPUT-LIGAND-PDBQT: HETATM   42  O17 UNK     1      24.102 -12.504  14.786  0.00  0.00    -0.265 OA
INPUT-LIGAND-PDBQT: HETATM   43  C47 UNK     1      21.067 -13.386  11.893  0.00  0.00     0.040 C 
INPUT-LIGAND-PDBQT: ENDROOT
INPUT-LIGAND-PDBQT: BRANCH   1  44
INPUT-LIGAND-PDBQT: HETATM   44  O1  UNK     1      37.347 -16.630   1.765  0.00  0.00    -0.349 OA
INPUT-LIGAND-PDBQT: BRANCH  44  45
INPUT-LIGAND-PDBQT: HETATM   45  C1  UNK     1      37.683 -16.732   0.358  0.00  0.00     0.291 C 
INPUT-LIGAND-PDBQT: HETATM   46  C2  UNK     1      36.870 -15.735  -0.493  0.00  0.00     0.206 C 
INPUT-LIGAND-PDBQT: HETATM   47  C4  UNK     1      37.178 -14.271  -0.114  0.00  0.00     0.247 C 
INPUT-LIGAND-PDBQT: HETATM   48  C8  UNK     1      38.697 -13.996  -0.201  0.00  0.00     0.179 C 
INPUT-LIGAND-PDBQT: HETATM   49  C5  UNK     1      39.592 -15.085   0.445  0.00  0.00     0.151 C 
INPUT-LIGAND-PDBQT: HETATM   50  O2  UNK     1      39.085 -16.422   0.150  0.00  0.00    -0.351 OA
INPUT-LIGAND-PDBQT: HETATM   51  C9  UNK     1      39.807 -14.885   1.957  0.00  0.00     0.042 C 
INPUT-LIGAND-PDBQT: BRANCH  46  52
INPUT-LIGAND-PDBQT: HETATM   52  O3  UNK     1      35.465 -15.999  -0.407  0.00  0.00    -0.388 OA
INPUT-LIGAND-PDBQT: HETATM   53  H5  UNK     1      35.285 -16.886  -0.728  0.00  0.00     0.210 HD
INPUT-LIGAND-PDBQT: ENDBRANCH  46  52
INPUT-LIGAND-PDBQT: BRANCH  47  54
INPUT-LIGAND-PDBQT: HETATM   54  N1  UNK     1      36.610 -13.899   1.231  0.00  0.00    -0.070 N 
INPUT-LIGAND-PDBQT: HETATM   55  H11 UNK     1      36.805 -12.907   1.431  0.00  0.00     0.274 HD
INPUT-LIGAND-PDBQT: HETATM   56  H12 UNK     1      37.041 -14.491   1.957  0.00  0.00     0.274 HD
INPUT-LIGAND-PDBQT: HETATM   57  H13 UNK     1      35.593 -14.059   1.227  0.00  0.00     0.274 HD
INPUT-LIGAND-PDBQT: ENDBRANCH  47  54
INPUT-LIGAND-PDBQT: BRANCH  48  58
INPUT-LIGAND-PDBQT: HETATM   58  O4  UNK     1      39.051 -13.884  -1.585  0.00  0.00    -0.391 OA
INPUT-LIGAND-PDBQT: HETATM   59  H19 UNK     1      38.604 -13.129  -1.975  0.00  0.00     0.210 HD
INPUT-LIGAND-PDBQT: ENDBRANCH  48  58
INPUT-LIGAND-PDBQT: ENDBRANCH  44  45
INPUT-LIGAND-PDBQT: ENDBRANCH   1  44
INPUT-LIGAND-PDBQT: BRANCH   4  60
INPUT-LIGAND-PDBQT: HETATM   60  O5  UNK     1      37.860 -20.205   3.334  0.00  0.00    -0.394 OA
INPUT-LIGAND-PDBQT: HETATM   61  H21 UNK     1      38.599 -20.819   3.318  0.00  0.00     0.210 HD
INPUT-LIGAND-PDBQT: ENDBRANCH   4  60
INPUT-LIGAND-PDBQT: BRANCH   6  62
INPUT-LIGAND-PDBQT: HETATM   62  C15 UNK     1      40.392 -19.876   4.962  0.00  0.00     0.182 C 
INPUT-LIGAND-PDBQT: HETATM   63  O7  UNK     1      41.322 -19.730   5.802  0.00  0.00    -0.648 OA
INPUT-LIGAND-PDBQT: HETATM   64  O8  UNK     1      40.504 -20.761   4.071  0.00  0.00    -0.648 OA
INPUT-LIGAND-PDBQT: ENDBRANCH   6  62
INPUT-LIGAND-PDBQT: BRANCH   8  65
INPUT-LIGAND-PDBQT: HETATM   65  O6  UNK     1      37.276 -20.165   6.158  0.00  0.00    -0.394 OA
INPUT-LIGAND-PDBQT: HETATM   66  H27 UNK     1      36.772 -19.881   5.392  0.00  0.00     0.210 HD
INPUT-LIGAND-PDBQT: ENDBRANCH   8  65
INPUT-LIGAND-PDBQT: BRANCH  17  67
INPUT-LIGAND-PDBQT: HETATM   67  O10 UNK     1      34.084 -18.896   9.133  0.00  0.00    -0.393 OA
INPUT-LIGAND-PDBQT: HETATM   68  H36 UNK     1      33.683 -19.267   8.344  0.00  0.00     0.210 HD
INPUT-LIGAND-PDBQT: ENDBRANCH  17  67
INPUT-LIGAND-PDBQT: BRANCH  19  69
INPUT-LIGAND-PDBQT: HETATM   69  O11 UNK     1      33.552 -15.358   8.202  0.00  0.00    -0.393 OA
INPUT-LIGAND-PDBQT: HETATM   70  H41 UNK     1      34.012 -14.935   8.930  0.00  0.00     0.210 HD
INPUT-LIGAND-PDBQT: ENDBRANCH  19  69
INPUT-LIGAND-PDBQT: BRANCH  25  71
INPUT-LIGAND-PDBQT: HETATM   71  O12 UNK     1      29.737 -17.445  11.049  0.00  0.00    -0.395 OA
INPUT-LIGAND-PDBQT: HETATM   72  H51 UNK     1      29.266 -17.811  10.296  0.00  0.00     0.210 HD
INPUT-LIGAND-PDBQT: ENDBRANCH  25  71
INPUT-LIGAND-PDBQT: BRANCH  29  73
INPUT-LIGAND-PDBQT: HETATM   73  O13 UNK     1      27.786 -16.206  12.703  0.00  0.00    -0.395 OA
INPUT-LIGAND-PDBQT: HETATM   74  H57 UNK     1      27.309 -16.849  12.173  0.00  0.00     0.210 HD
INPUT-LIGAND-PDBQT: ENDBRANCH  29  73
INPUT-LIGAND-PDBQT: BRANCH  33  75
INPUT-LIGAND-PDBQT: HETATM   75  O14 UNK     1      25.394 -15.013  13.699  0.00  0.00    -0.395 OA
INPUT-LIGAND-PDBQT: HETATM   76  H66 UNK     1      24.867 -15.610  13.164  0.00  0.00     0.210 HD
INPUT-LIGAND-PDBQT: ENDBRANCH  33  75
INPUT-LIGAND-PDBQT: BRANCH  34  77
INPUT-LIGAND-PDBQT: HETATM   77  O15 UNK     1      19.487 -10.033   9.913  0.00  0.00    -0.394 OA
INPUT-LIGAND-PDBQT: HETATM   78  H68 UNK     1      19.579  -9.130  10.227  0.00  0.00     0.210 HD
INPUT-LIGAND-PDBQT: ENDBRANCH  34  77
INPUT-LIGAND-PDBQT: TORSDOF 14
________________________________________________________________________________

Total charge on ligand                               =	+0.003 e
REMARK  14 active torsions:
REMARK  status: ('A' for Active; 'I' for Inactive)
REMARK    1  A    between atoms: C1_1  and  O1_2 
REMARK    2  A    between atoms: O1_2  and  C3_5 
REMARK    3  A    between atoms: C2_3  and  O3_7 
REMARK    4  A    between atoms: C4_6  and  N1_13 
REMARK    5  A    between atoms: C8_12  and  O4_20 
REMARK    6  A    between atoms: C10_18  and  O5_23 
REMARK    7  A    between atoms: C12_22  and  C15_27 
REMARK    8  A    between atoms: C14_26  and  O6_30 
REMARK    9  A    between atoms: C23_40  and  O10_43 
REMARK   10  A    between atoms: C25_42  and  O11_47 
REMARK   11  A    between atoms: C31_52  and  O12_55 
REMARK   12  A    between atoms: C35_58  and  O13_61 
REMARK   13  A    between atoms: C39_64  and  O14_68 
REMARK   14  A    between atoms: C40_65  and  O15_71 


Number of Rotatable Bonds in Small Molecule =	14 torsions
Number of atoms in ligand:  78

Number of non-hydrogen atoms in ligand:  65

Number of vibrational degrees of freedom of ligand:  228


Number of torsional degrees of freedom = 14
Estimated loss of torsional free energy upon binding = +4.1762 kcal/mol


DPF> about 31.6881 -15.3444 6.7645        # small molecule center

Small molecule center of rotation =	(+31.688, -15.344, +6.764)

DPF> tran0 random                         # initial coordinates/A or random

Initial translation =			(36.717, -37.546, 7.264) Angstroms
DPF> quaternion0 random                   # initial orientation

Each run will begin with a new, random initial orientation.
Initial quaternion,  (x,y,z,w) =	( -0.137, 0.401, 0.382, -0.821 ),
DPF> dihe0 random                         # initial dihedrals (relative) or random

DPF> torsdof 14                            # torsional degrees of freedom

Number of torsional degrees of freedom = 14
Free energy coefficient for torsional degrees of freedom = 0.2983, the factory default value.

Estimated loss of torsional free energy upon binding = +4.1762 kcal/mol

DPF> rmstol 2.0                           # cluster_tolerance/A

Maximum RMS tolerance for conformational cluster analysis = 2.00 Angstroms
DPF> extnrg 1000.0                        # external grid energy

External grid energy (beyond grid map walls) = 1000.00

DPF> e0max 0.0 10000                      # max initial energy; max number of retries

Using user-specified maximum number of retries for simanneal initialization, 10000 retries.
If the simanneal initial energy is greater than e0max, 0.000,
then a new, random initial state will be created.

DPF> ga_pop_size 150                      # number of individuals in population

A population of 150 individuals will be used
DPF> ga_num_evals 2500000                 # maximum number of energy evaluations

There will be at most 2500000 function evaluations used.
DPF> ga_num_generations 27000             # maximum number of generations

The GA will run for at most 27000 generations.
DPF> ga_elitism 1                         # number of top individuals to survive to next generation

The 1 best will be preserved each GA generation.
DPF> ga_mutation_rate 0.02                # rate of gene mutation

The mutation rate is 0.020000.
DPF> ga_crossover_rate 0.8                # rate of crossover

The crossover rate is 0.800000.
DPF> ga_window_size 10                    # 

The GA's selection window is 10 generations.
DPF> ga_cauchy_alpha 0.0                  # Alpha parameter of Cauchy distribution

The alpha parameter (for the Cauchy distribution) is being set to 0.000000.
DPF> ga_cauchy_beta 1.0                   # Beta parameter Cauchy distribution

The beta parameter (for the Cauchy distribution) is being set to 1.000000.
DPF> set_ga                               # set the above parameters for GA or LGA

DPF> sw_max_its 300                       # iterations of Solis & Wets local search

Solis & Wets algorithms will perform at most 300 iterations.
DPF> sw_max_succ 4                        # consecutive successes before changing rho

Solis & Wets algorithms expand rho every 4 in a row successes.
DPF> sw_max_fail 4                        # consecutive failures before changing rho

Solis & Wets algorithms contract rho every 4 in a row failures.
DPF> sw_rho 1.0                           # size of local search space to sample

rho is set to 1.000000.
DPF> sw_lb_rho 0.01                       # lower bound on rho

rho will never get smaller than 0.010000.
DPF> ls_search_freq 0.06                  # probability of performing local search on individual

Local search will be performed with frequency 0.060000.
DPF> set_psw1                             # set the above pseudo-Solis & Wets parameters

Creating a new Local Search object using the pseudo-Solis-Wets algorithm (pSW1) with the current settings.

DPF> unbound_model extended               # state of unbound ligand

/usr/bin/autodock4: WARNING: Using autodock4.0 unbound extended model in autodock4.2!
Computing the energy of the unbound state of the ligand,
given the torsion tree defined in the ligand file.


	BEGINNING COMPUTATION OF UNBOUND EXTENDED STATE USING LGA
	_________________________________________________________


Date:	Thu May 18 15:05:55 2023
Beginning LAMARCKIAN GENETIC ALGORITHM (LGA), with a maximum of 1000000 energy evaluations.

Final-Value: -11128.690

Finished Lamarckian Genetic Algorithm (LGA)
3:06 18" p.m., 05/18/2023

Total number of Energy Evaluations: 1000929
Total number of Generations:        514


		Ligand Intramolecular Energy Analysis
		=====================================

Non-bond  Atom1-Atom2  Distance   Total        Elec     vdW        Hb     Desolv     Sol_fn   Type Dielectric
________  ___________  ________   ______  _________  ________ ________  ________   ________   ____ __________
      1       1-47      4.3975   -0.0021    +0.0188   -0.0240   +0.0000   +0.0031    +0.0628   1    20.957
      2       1-48      4.6609   -0.0067    +0.0119   -0.0201   +0.0000   +0.0014    +0.0572   1    22.612
      3       1-49      3.7382   -0.0072    +0.0166   -0.0249   +0.0000   +0.0011    +0.0771   1    17.060
      4       1-51      3.3483   -0.0008    +0.0059   -0.0045   +0.0000   -0.0022    +0.0859   1    14.881
      5       1-52      4.2697   -0.0496    -0.0315   -0.0221   +0.0000   +0.0041    +0.0655   1    20.185
      6       1-53      5.1703   +0.0145    +0.0110   -0.0009   +0.0000   +0.0044    +0.0472   1    25.887
      7       1-54      4.1629   -0.0321    -0.0060   -0.0245   +0.0000   -0.0016    +0.0678   1    19.537
      8       1-55      3.8120   +0.0323    +0.0288   -0.0053   +0.0000   +0.0089    +0.0755   1    17.487
      9       1-56      5.1532   +0.0191    +0.0145   -0.0009   +0.0000   +0.0056    +0.0475   1    25.768
     10       1-57      3.7874   +0.0326    +0.0292   -0.0055   +0.0000   +0.0090    +0.0760   1    17.345
     11       1-58      5.7585   -0.0179    -0.0159   -0.0043   +0.0000   +0.0023    +0.0368   1    29.816
     12       1-59      6.4707   +0.0088    +0.0066   -0.0002   +0.0000   +0.0025    +0.0263   1    34.663
     13       1-61      3.6726   +0.0250    +0.0240   -0.0064   +0.0000   +0.0074    +0.0786   1    16.677
     14       1-63      5.8311   -0.0241    -0.0257   -0.0040   +0.0000   +0.0056    +0.0356   1    30.309
     15       1-64      5.7242   -0.0254    -0.0268   -0.0045   +0.0000   +0.0059    +0.0374   1    29.577
     16       1-66      5.3916   +0.0133    +0.0100   -0.0007   +0.0000   +0.0041    +0.0431   1    27.353
     17       1-68      8.1398   +0.0049    +0.0039   +0.0000   +0.0000   +0.0010    +0.0103   1    45.876
     18       1-70      7.5579   +0.0059    +0.0046   -0.0001   +0.0000   +0.0014    +0.0146   1    42.053
     19       1-72     11.4871   +0.0021    +0.0020   +0.0000   +0.0000   +0.0001    +0.0008   1    63.431
     20       1-74     14.0542   +0.0015    +0.0015   +0.0000   +0.0000   +0.0000    +0.0001   1    71.035
     21       1-76     16.6182   +0.0012    +0.0012   +0.0000   +0.0000   +0.0000    +0.0000   1    74.958
     22       1-78     20.2526   +0.0009    +0.0009   +0.0000   +0.0000   +0.0000    +0.0000   1    77.276
     23       2-46      4.6802   -0.0133    +0.0062   -0.0198   +0.0000   +0.0003    +0.0568   1    22.717
     24       2-47      5.3495   -0.0040    +0.0054   -0.0103   +0.0000   +0.0009    +0.0439   1    27.063
     25       2-48      5.9184   -0.0029    +0.0031   -0.0058   +0.0000   -0.0002    +0.0343   1    30.886
     26       2-49      5.1889   -0.0093    +0.0036   -0.0121   +0.0000   -0.0007    +0.0468   1    26.006
     27       2-50      4.4274   -0.0286    -0.0119   -0.0188   +0.0000   +0.0021    +0.0621   1    21.153
     28       2-51      4.7551   -0.0204    +0.0012   -0.0185   +0.0000   -0.0031    +0.0553   1    23.200
     29       2-52      4.6578   -0.0236    -0.0117   -0.0146   +0.0000   +0.0027    +0.0573   1    22.591
     30       2-53      5.5415   +0.0075    +0.0042   -0.0006   +0.0000   +0.0038    +0.0405   1    28.345
     31       2-54      4.8706   -0.0169    -0.0019   -0.0126   +0.0000   -0.0023    +0.0529   1    23.947
     32       2-55      4.2336   +0.0151    +0.0103   -0.0030   +0.0000   +0.0078    +0.0663   1    19.963
     33       2-56      5.7728   +0.0089    +0.0050   -0.0005   +0.0000   +0.0043    +0.0366   1    29.907
     34       2-57      4.6286   +0.0134    +0.0084   -0.0018   +0.0000   +0.0068    +0.0579   1    22.400
     35       2-58      7.0394   -0.0049    -0.0046   -0.0013   +0.0000   +0.0009    +0.0196   1    38.557
     36       2-59      7.7994   +0.0031    +0.0020   -0.0001   +0.0000   +0.0012    +0.0127   1    43.658
     37       2-63      4.7401   -0.0241    -0.0188   -0.0133   +0.0000   +0.0079    +0.0556   1    23.117
     38       2-64      4.6414   -0.0264    -0.0197   -0.0149   +0.0000   +0.0082    +0.0576   1    22.485
     39       2-66      4.1312   +0.0113    +0.0083   -0.0035   +0.0000   +0.0065    +0.0684   1    19.356
     40       2-68      7.0210   +0.0042    +0.0025   -0.0001   +0.0000   +0.0019    +0.0197   1    38.436
     41       2-70      6.7706   +0.0046    +0.0027   -0.0002   +0.0000   +0.0021    +0.0226   1    36.718
     42       2-72     10.7535   +0.0012    +0.0010   +0.0000   +0.0000   +0.0001    +0.0015   1    60.344
     43       2-74     13.4069   +0.0007    +0.0007   +0.0000   +0.0000   +0.0000    +0.0001   1    69.536
     44       2-76     16.1007   +0.0006    +0.0006   +0.0000   +0.0000   +0.0000    +0.0000   1    74.376
     45       2-78     20.4541   +0.0004    +0.0004   +0.0000   +0.0000   +0.0000    +0.0000   1    77.344
     46       3-46      4.2392   -0.0256    +0.0006   -0.0249   +0.0000   -0.0012    +0.0661   1    20.007
     47       3-47      5.0481   -0.0137    +0.0005   -0.0140   +0.0000   -0.0002    +0.0495   1    25.087
     48       3-48      5.0512   -0.0150    +0.0003   -0.0139   +0.0000   -0.0014    +0.0494   1    25.108
     49       3-49      3.8613   -0.0273    +0.0005   -0.0249   +0.0000   -0.0029    +0.0744   1    17.769
     50       3-50      2.8184   +0.0460    -0.0024   +0.0463   +0.0000   +0.0021    +0.0973   1    12.145
     51       3-51      3.7844   -0.0308    +0.0001   -0.0249   +0.0000   -0.0060    +0.0761   1    17.321
     52       3-52      4.8654   -0.0105    -0.0008   -0.0115   +0.0000   +0.0019    +0.0531   1    23.906
     53       3-53      5.6355   +0.0034    +0.0003   -0.0005   +0.0000   +0.0037    +0.0388   1    28.983
     54       3-54      5.2134   -0.0116    -0.0001   -0.0087   +0.0000   -0.0028    +0.0464   1    26.164
     55       3-55      4.9755   +0.0054    +0.0005   -0.0012   +0.0000   +0.0060    +0.0509   1    24.622
     56       3-56      6.2403   +0.0035    +0.0003   -0.0003   +0.0000   +0.0035    +0.0294   1    33.096
     57       3-57      4.8811   +0.0055    +0.0005   -0.0013   +0.0000   +0.0062    +0.0528   1    24.009
     58       3-58      5.8769   -0.0031    -0.0005   -0.0038   +0.0000   +0.0013    +0.0349   1    30.616
     59       3-59      6.5884   +0.0023    +0.0002   -0.0002   +0.0000   +0.0023    +0.0248   1    35.484
     60       3-61      4.9173   +0.0041    +0.0004   -0.0012   +0.0000   +0.0049    +0.0521   1    24.234
     61       3-63      7.2251   +0.0007    -0.0005   -0.0011   +0.0000   +0.0023    +0.0177   1    39.821
     62       3-64      6.9833   +0.0007    -0.0006   -0.0013   +0.0000   +0.0026    +0.0202   1    38.177
     63       3-66      6.0601   +0.0029    +0.0003   -0.0003   +0.0000   +0.0030    +0.0321   1    31.864
     64       3-68      7.9080   +0.0012    +0.0001   -0.0001   +0.0000   +0.0011    +0.0118   1    44.375
     65       3-70      7.0216   +0.0019    +0.0002   -0.0001   +0.0000   +0.0019    +0.0197   1    38.436
     66       3-72     10.7159   +0.0002    +0.0001   +0.0000   +0.0000   +0.0001    +0.0016   1    60.173
     67       3-74     13.1661   +0.0001    +0.0001   +0.0000   +0.0000   +0.0000    +0.0002   1    68.915
     68       3-76     15.6037   +0.0000    +0.0000   +0.0000   +0.0000   +0.0000    +0.0000   1    73.730
     69       3-78     18.8280   +0.0000    +0.0000   +0.0000   +0.0000   +0.0000    +0.0000   1    76.650
     70       4-45      4.5621   +0.0005    +0.0185   -0.0216   +0.0000   +0.0036    +0.0592   1    21.995
     71       4-46      5.4274   +0.0006    +0.0088   -0.0095   +0.0000   +0.0013    +0.0425   1    27.583
     72       4-47      5.7503   +0.0041    +0.0092   -0.0068   +0.0000   +0.0017    +0.0369   1    29.761
     73       4-48      6.3824   +0.0021    +0.0053   -0.0037   +0.0000   +0.0006    +0.0275   1    34.063
     74       4-49      5.8210   -0.0005    +0.0055   -0.0064   +0.0000   +0.0004    +0.0358   1    30.236
     75       4-50      5.3896   -0.0197    -0.0152   -0.0064   +0.0000   +0.0020    +0.0431   1    27.333
     76       4-51      5.0868   -0.0128    +0.0021   -0.0134   +0.0000   -0.0015    +0.0487   1    25.349
     77       4-52      5.2997   -0.0219    -0.0175   -0.0071   +0.0000   +0.0027    +0.0448   1    26.732
     78       4-53      6.2175   +0.0091    +0.0066   -0.0003   +0.0000   +0.0028    +0.0298   1    32.942
     79       4-54      4.8773   -0.0178    -0.0038   -0.0126   +0.0000   -0.0014    +0.0528   1    23.988
     80       4-55      4.2170   +0.0257    +0.0209   -0.0031   +0.0000   +0.0078    +0.0666   1    19.873
     81       4-56      5.6107   +0.0149    +0.0108   -0.0006   +0.0000   +0.0046    +0.0393   1    28.815
     82       4-57      4.5380   +0.0227    +0.0177   -0.0020   +0.0000   +0.0070    +0.0598   1    21.823
     83       4-58      7.6609   -0.0076    -0.0076   -0.0008   +0.0000   +0.0008    +0.0137   1    42.750
     84       4-59      8.3430   +0.0043    +0.0034   +0.0000   +0.0000   +0.0009    +0.0090   1    47.168
     85       4-66      3.5798   +0.0236    +0.0232   -0.0072   +0.0000   +0.0076    +0.0806   1    16.169
     86       4-68      7.5491   +0.0055    +0.0042   -0.0001   +0.0000   +0.0014    +0.0147   1    41.998
     87       4-70      7.8869   +0.0049    +0.0039   -0.0001   +0.0000   +0.0011    +0.0120   1    44.233
     88       4-72     11.6695   +0.0019    +0.0018   +0.0000   +0.0000   +0.0001    +0.0007   1    64.130
     89       4-74     14.4283   +0.0013    +0.0013   +0.0000   +0.0000   +0.0000    +0.0000   1    71.792
     90       4-76     17.2120   +0.0010    +0.0010   +0.0000   +0.0000   +0.0000    +0.0000   1    75.526
     91       4-78     21.8952   +0.0008    +0.0008   +0.0000   +0.0000   +0.0000    +0.0000   1    77.727
     92       5-45      3.1589   +0.0416    -0.0006   +0.0412   +0.0000   +0.0011    +0.0900   1    13.883
     93       5-46      4.5870   -0.0226    -0.0002   -0.0213   +0.0000   -0.0011    +0.0587   1    22.144
     94       5-47      5.6996   -0.0075    -0.0001   -0.0072   +0.0000   -0.0002    +0.0378   1    29.410
     95       5-48      5.8651   -0.0072    -0.0001   -0.0061   +0.0000   -0.0010    +0.0351   1    30.526
     96       5-49      4.7983   -0.0201    -0.0001   -0.0178   +0.0000   -0.0022    +0.0544   1    23.471
     97       5-50      3.5103   -0.0265    +0.0006   -0.0288   +0.0000   +0.0017    +0.0822   1    15.777
     98       5-51      4.9903   -0.0189    -0.0000   -0.0148   +0.0000   -0.0040    +0.0506   1    24.703
     99       5-52      4.9985   -0.0079    +0.0003   -0.0099   +0.0000   +0.0017    +0.0505   1    24.764
    100       5-53      5.6383   +0.0030    -0.0001   -0.0005   +0.0000   +0.0037    +0.0388   1    29.002
    101       5-54      6.0087   -0.0057    +0.0000   -0.0038   +0.0000   -0.0020    +0.0328   1    31.511
    102       5-55      5.6453   +0.0039    -0.0002   -0.0005   +0.0000   +0.0046    +0.0387   1    29.039
    103       5-56      7.0342   +0.0021    -0.0001   -0.0001   +0.0000   +0.0023    +0.0196   1    38.526
    104       5-57      5.8563   +0.0036    -0.0001   -0.0004   +0.0000   +0.0041    +0.0352   1    30.472
    105       5-58      6.5047   -0.0010    +0.0002   -0.0021   +0.0000   +0.0009    +0.0259   1    34.894
    106       5-59      7.2929   +0.0014    -0.0001   -0.0001   +0.0000   +0.0016    +0.0170   1    40.272
    107       5-61      5.8286   +0.0028    -0.0001   -0.0004   +0.0000   +0.0034    +0.0357   1    30.290
    108       5-63      7.6923   +0.0012    +0.0002   -0.0007   +0.0000   +0.0018    +0.0135   1    42.952
    109       5-64      7.5589   +0.0013    +0.0002   -0.0008   +0.0000   +0.0019    +0.0146   1    42.067
    110       5-66      6.2675   +0.0024    -0.0001   -0.0003   +0.0000   +0.0027    +0.0290   1    33.285
    111       5-68      7.2105   +0.0015    -0.0001   -0.0001   +0.0000   +0.0017    +0.0178   1    39.719
    112       5-70      5.8296   +0.0028    -0.0001   -0.0004   +0.0000   +0.0034    +0.0357   1    30.290
    113       5-72      9.7155   +0.0003    -0.0000   +0.0000   +0.0000   +0.0003    +0.0035   1    55.215
    114       5-74     12.0534   +0.0000    -0.0000   +0.0000   +0.0000   +0.0000    +0.0005   1    65.519
    115       5-76     14.4543   -0.0000    -0.0000   +0.0000   +0.0000   +0.0000    +0.0000   1    71.842
    116       5-78     17.7822   -0.0000    -0.0000   +0.0000   +0.0000   +0.0000    +0.0000   1    75.986
    117       6-45      5.7357   +0.0069    +0.0115   -0.0070   +0.0000   +0.0024    +0.0372   1    29.650
    118       6-46      6.4309   +0.0036    +0.0063   -0.0035   +0.0000   +0.0009    +0.0268   1    34.397
    119       6-47      6.8399   +0.0051    +0.0065   -0.0024   +0.0000   +0.0010    +0.0217   1    37.205
    120       6-48      7.6775   +0.0028    +0.0037   -0.0012   +0.0000   +0.0003    +0.0136   1    42.858
    121       6-49      7.2567   +0.0020    +0.0035   -0.0017   +0.0000   +0.0002    +0.0173   1    40.040
    122       6-50      6.7445   -0.0101    -0.0096   -0.0016   +0.0000   +0.0011    +0.0229   1    36.543
    123       6-51      6.6029   -0.0025    +0.0012   -0.0030   +0.0000   -0.0007    +0.0246   1    35.581
    124       6-52      5.9846   -0.0153    -0.0139   -0.0034   +0.0000   +0.0020    +0.0332   1    31.351
    125       6-53      6.8151   +0.0075    +0.0056   -0.0002   +0.0000   +0.0021    +0.0220   1    37.032
    126       6-54      5.8911   -0.0077    -0.0026   -0.0043   +0.0000   -0.0009    +0.0347   1    30.707
    127       6-55      5.0729   +0.0191    +0.0144   -0.0010   +0.0000   +0.0058    +0.0490   1    25.248
    128       6-56      6.5022   +0.0110    +0.0081   -0.0002   +0.0000   +0.0031    +0.0259   1    34.878
    129       6-57      5.7194   +0.0148    +0.0109   -0.0005   +0.0000   +0.0044    +0.0375   1    29.540
    130       6-58      8.9243   -0.0054    -0.0058   +0.0000   +0.0000   +0.0004    +0.0061   1    50.733
    131       6-59      9.6477   +0.0030    +0.0027   +0.0000   +0.0000   +0.0003    +0.0036   1    54.849
    132       6-68      7.0163   +0.0070    +0.0052   -0.0001   +0.0000   +0.0019    +0.0198   1    38.405
    133       6-70      7.6396   +0.0056    +0.0043   -0.0001   +0.0000   +0.0013    +0.0139   1    42.600
    134       6-72     11.4207   +0.0020    +0.0020   +0.0000   +0.0000   +0.0001    +0.0009   1    63.168
    135       6-74     14.1886   +0.0014    +0.0014   +0.0000   +0.0000   +0.0000    +0.0001   1    71.317
    136       6-76     17.0561   +0.0011    +0.0011   +0.0000   +0.0000   +0.0000    +0.0000   1    75.387
    137       6-78     22.3524   +0.0008    +0.0008   +0.0000   +0.0000   +0.0000    +0.0000   1    77.816
    138       7-45      4.1009   -0.0242    -0.0000   -0.0249   +0.0000   +0.0008    +0.0691   1    19.175
    139       7-46      5.4732   -0.0099    -0.0000   -0.0091   +0.0000   -0.0008    +0.0417   1    27.889
    140       7-47      6.6281   -0.0031    -0.0000   -0.0030   +0.0000   -0.0001    +0.0243   1    35.743
    141       7-48      6.6175   -0.0037    -0.0000   -0.0030   +0.0000   -0.0007    +0.0244   1    35.678
    142       7-49      5.4595   -0.0109    -0.0000   -0.0092   +0.0000   -0.0017    +0.0419   1    27.794
    143       7-50      4.1491   -0.0234    +0.0000   -0.0247   +0.0000   +0.0014    +0.0681   1    19.447
    144       7-51      5.7837   -0.0095    -0.0000   -0.0066   +0.0000   -0.0029    +0.0364   1    29.981
    145       7-52      5.9826   -0.0023    +0.0000   -0.0034   +0.0000   +0.0011    +0.0332   1    31.333
    146       7-53      6.5055   +0.0022    -0.0000   -0.0002   +0.0000   +0.0024    +0.0258   1    34.911
    147       7-54      7.1193   -0.0025    +0.0000   -0.0013   +0.0000   -0.0011    +0.0187   1    39.097
    148       7-55      6.8361   +0.0024    -0.0000   -0.0002   +0.0000   +0.0026    +0.0218   1    37.173
    149       7-56      8.1440   +0.0012    -0.0000   +0.0000   +0.0000   +0.0012    +0.0102   1    45.901
    150       7-57      6.9629   +0.0023    -0.0000   -0.0001   +0.0000   +0.0024    +0.0204   1    38.040
    151       7-58      7.0514   -0.0006    +0.0000   -0.0013   +0.0000   +0.0007    +0.0194   1    38.647
    152       7-59      7.7956   +0.0011    -0.0000   -0.0001   +0.0000   +0.0012    +0.0127   1    43.631
    153       7-61      6.9802   +0.0018    -0.0000   -0.0001   +0.0000   +0.0019    +0.0202   1    38.162
    154       7-63      8.9744   +0.0008    +0.0000   +0.0000   +0.0000   +0.0008    +0.0059   1    51.034
    155       7-64      8.7410   +0.0009    +0.0000   +0.0000   +0.0000   +0.0009    +0.0069   1    49.627
    156       7-66      7.1524   +0.0016    -0.0000   -0.0001   +0.0000   +0.0017    +0.0184   1    39.335
    157       7-68      7.3401   +0.0015    -0.0000   -0.0001   +0.0000   +0.0016    +0.0165   1    40.604
    158       7-70      5.7191   +0.0030    -0.0000   -0.0005   +0.0000   +0.0035    +0.0375   1    29.540
    159       7-72      9.1948   +0.0005    -0.0000   +0.0000   +0.0000   +0.0005    +0.0051   1    52.319
    160       7-74     11.3715   +0.0001    -0.0000   +0.0000   +0.0000   +0.0001    +0.0009   1    62.972
    161       7-76     13.6211   +0.0000    -0.0000   +0.0000   +0.0000   +0.0000    +0.0001   1    70.062
    162       7-78     16.5313   +0.0000    -0.0000   +0.0000   +0.0000   +0.0000    +0.0000   1    74.866
    163       8-45      6.5960   +0.0068    +0.0082   -0.0030   +0.0000   +0.0016    +0.0247   1    35.532
    164       8-46      7.4526   +0.0035    +0.0044   -0.0014   +0.0000   +0.0005    +0.0155   1    41.356
    165       8-47      8.0667   +0.0050    +0.0045   +0.0000   +0.0000   +0.0005    +0.0107   1    45.404
    166       8-48      8.8552   +0.0028    +0.0027   +0.0000   +0.0000   +0.0001    +0.0064   1    50.324
    167       8-49      8.2748   +0.0027    +0.0026   +0.0000   +0.0000   +0.0001    +0.0094   1    46.739
    168       8-50      7.5808   -0.0074    -0.0073   -0.0008   +0.0000   +0.0007    +0.0144   1    42.218
    169       8-51      7.6630   -0.0008    +0.0008   -0.0012   +0.0000   -0.0004    +0.0137   1    42.763
    170       8-52      6.9910   -0.0097    -0.0096   -0.0013   +0.0000   +0.0012    +0.0201   1    38.223
    171       8-53      7.7710   +0.0053    +0.0041   -0.0001   +0.0000   +0.0012    +0.0129   1    43.473
    172       8-54      7.2675   -0.0032    -0.0016   -0.0012   +0.0000   -0.0004    +0.0172   1    40.113
    173       8-55      6.4373   +0.0111    +0.0082   -0.0002   +0.0000   +0.0031    +0.0267   1    34.447
    174       8-56      7.9489   +0.0064    +0.0051   -0.0001   +0.0000   +0.0014    +0.0116   1    44.632
    175       8-57      7.0964   +0.0087    +0.0066   -0.0001   +0.0000   +0.0022    +0.0190   1    38.948
    176       8-58     10.0364   -0.0044    -0.0045   +0.0000   +0.0000   +0.0002    +0.0027   1    56.896
    177       8-59     10.7971   +0.0023    +0.0021   +0.0000   +0.0000   +0.0001    +0.0015   1    60.540
    178       8-61      3.7520   +0.0231    +0.0217   -0.0058   +0.0000   +0.0072    +0.0768   1    17.132
    179       8-68      5.5394   +0.0121    +0.0089   -0.0006   +0.0000   +0.0038    +0.0405   1    28.326
    180       8-70      6.6937   +0.0078    +0.0057   -0.0002   +0.0000   +0.0022    +0.0235   1    36.193
    181       8-72     10.0684   +0.0027    +0.0024   +0.0000   +0.0000   +0.0002    +0.0026   1    57.054
    182       8-74     12.8751   +0.0016    +0.0016   +0.0000   +0.0000   +0.0000    +0.0002   1    68.110
    183       8-76     15.7912   +0.0012    +0.0012   +0.0000   +0.0000   +0.0000    +0.0000   1    73.984
    184       8-78     21.5382   +0.0008    +0.0008   +0.0000   +0.0000   +0.0000    +0.0000   1    77.647
    185       9-45      5.0951   -0.0128    +0.0000   -0.0133   +0.0000   +0.0005    +0.0486   1    25.389
    186       9-46      6.3304   -0.0045    +0.0000   -0.0039   +0.0000   -0.0006    +0.0282   1    33.709
    187       9-47      7.6228   -0.0013    +0.0000   -0.0013   +0.0000   -0.0001    +0.0141   1    42.492
    188       9-48      7.7330   -0.0015    +0.0000   -0.0012   +0.0000   -0.0004    +0.0132   1    43.220
    189       9-49      6.6719   -0.0038    +0.0000   -0.0028   +0.0000   -0.0010    +0.0237   1    36.049
    190       9-50      5.2986   -0.0062    -0.0000   -0.0071   +0.0000   +0.0009    +0.0448   1    26.732
    191       9-51      7.0780   -0.0035    +0.0000   -0.0020   +0.0000   -0.0015    +0.0191   1    38.828
    192       9-52      6.6479   -0.0010    -0.0000   -0.0018   +0.0000   +0.0008    +0.0240   1    35.888
    193       9-53      7.0575   +0.0017    +0.0000   -0.0001   +0.0000   +0.0018    +0.0194   1    38.677
    194       9-54      8.1497   -0.0006    -0.0000   +0.0000   +0.0000   -0.0006    +0.0102   1    45.938
    195       9-55      7.7772   +0.0014    +0.0000   -0.0001   +0.0000   +0.0015    +0.0128   1    43.512
    196       9-56      9.1605   +0.0006    +0.0000   +0.0000   +0.0000   +0.0006    +0.0052   1    52.122
    197       9-57      8.0895   +0.0012    +0.0000   +0.0000   +0.0000   +0.0012    +0.0106   1    45.554
    198       9-58      8.0692   +0.0004    -0.0000   +0.0000   +0.0000   +0.0004    +0.0107   1    45.417
    199       9-59      8.8489   +0.0006    +0.0000   +0.0000   +0.0000   +0.0006    +0.0065   1    50.281
    200       9-61      7.9355   +0.0010    +0.0000   -0.0001   +0.0000   +0.0011    +0.0116   1    44.555
    201       9-63      9.6110   +0.0005    -0.0000   +0.0000   +0.0000   +0.0005    +0.0037   1    54.647
    202       9-64      9.4259   +0.0006    -0.0000   +0.0000   +0.0000   +0.0006    +0.0043   1    53.633
    203       9-66      7.5650   +0.0013    +0.0000   -0.0001   +0.0000   +0.0014    +0.0145   1    42.108
    204       9-68      6.8186   +0.0019    +0.0000   -0.0002   +0.0000   +0.0021    +0.0220   1    37.048
    205       9-70      4.7167   +0.0037    +0.0000   -0.0016   +0.0000   +0.0053    +0.0561   1    22.949
    206       9-72      8.1838   +0.0009    +0.0000   +0.0000   +0.0000   +0.0009    +0.0100   1    46.158
    207       9-74     10.2059   +0.0002    +0.0000   +0.0000   +0.0000   +0.0002    +0.0024   1    57.751
    208       9-76     12.4044   +0.0000    +0.0000   +0.0000   +0.0000   +0.0000    +0.0003   1    66.684
    209       9-78     15.4839   +0.0000    +0.0000   +0.0000   +0.0000   +0.0000    +0.0000   1    73.560
    210      10-45      6.4357   +0.0047    +0.0068   -0.0035   +0.0000   +0.0014    +0.0268   1    34.431
    211      10-46      7.2410   +0.0023    +0.0037   -0.0017   +0.0000   +0.0004    +0.0175   1    39.924
    212      10-47      8.1108   +0.0038    +0.0035   +0.0000   +0.0000   +0.0004    +0.0104   1    45.691
    213      10-48      9.0018   +0.0021    +0.0020   +0.0000   +0.0000   +0.0001    +0.0058   1    51.198
    214      10-49      8.4595   +0.0019    +0.0019   +0.0000   +0.0000   +0.0000    +0.0084   1    47.904
    215      10-50      7.5463   -0.0060    -0.0057   -0.0008   +0.0000   +0.0006    +0.0147   1    41.984
    216      10-51      8.1153   +0.0002    +0.0006   +0.0000   +0.0000   -0.0004    +0.0104   1    45.716
    217      10-52      6.6331   -0.0090    -0.0085   -0.0018   +0.0000   +0.0013    +0.0242   1    35.775
    218      10-53      7.2945   +0.0052    +0.0037   -0.0001   +0.0000   +0.0016    +0.0170   1    40.287
    219      10-54      7.5281   -0.0026    -0.0012   -0.0010   +0.0000   -0.0005    +0.0149   1    41.859
    220      10-55      6.6282   +0.0087    +0.0060   -0.0002   +0.0000   +0.0029    +0.0243   1    35.743
    221      10-56      8.2567   +0.0048    +0.0037   +0.0000   +0.0000   +0.0011    +0.0095   1    46.619
    222      10-57      7.5247   +0.0062    +0.0045   -0.0001   +0.0000   +0.0018    +0.0149   1    41.831
    223      10-58     10.0379   -0.0034    -0.0035   +0.0000   +0.0000   +0.0002    +0.0027   1    56.904
    224      10-59     10.8760   +0.0018    +0.0016   +0.0000   +0.0000   +0.0001    +0.0014   1    60.892
    225      10-61      5.0163   +0.0123    +0.0087   -0.0011   +0.0000   +0.0047    +0.0501   1    24.886
    226      10-63      4.4452   -0.0447    -0.0355   -0.0185   +0.0000   +0.0093    +0.0617   1    21.262
    227      10-64      4.4851   -0.0434    -0.0348   -0.0177   +0.0000   +0.0092    +0.0609   1    21.500
    228      10-68      4.8751   +0.0130    +0.0093   -0.0013   +0.0000   +0.0050    +0.0529   1    23.968
    229      10-70      5.3158   +0.0110    +0.0076   -0.0008   +0.0000   +0.0042    +0.0445   1    26.849
    230      10-72      9.1878   +0.0027    +0.0023   +0.0000   +0.0000   +0.0005    +0.0051   1    52.280
    231      10-74     11.8554   +0.0015    +0.0014   +0.0000   +0.0000   +0.0001    +0.0006   1    64.816
    232      10-76     14.7358   +0.0010    +0.0010   +0.0000   +0.0000   +0.0000    +0.0000   1    72.361
    233      10-78     20.5312   +0.0007    +0.0007   +0.0000   +0.0000   +0.0000    +0.0000   1    77.369
    234      11-45      6.1842   -0.0041    +0.0000   -0.0045   +0.0000   +0.0003    +0.0303   1    32.701
    235      11-46      7.3790   -0.0019    +0.0000   -0.0015   +0.0000   -0.0003    +0.0162   1    40.861
    236      11-47      8.6601   -0.0000    +0.0000   +0.0000   +0.0000   -0.0000    +0.0073   1    49.134
    237      11-48      8.6376   -0.0002    +0.0000   +0.0000   +0.0000   -0.0002    +0.0074   1    49.001
    238      11-49      7.5300   -0.0020    +0.0000   -0.0014   +0.0000   -0.0006    +0.0148   1    41.873
    239      11-50      6.1960   -0.0022    -0.0000   -0.0028   +0.0000   +0.0006    +0.0301   1    32.787
    240      11-51      8.0021   -0.0009    +0.0000   +0.0000   +0.0000   -0.0009    +0.0112   1    44.989
    241      11-52      7.7772   -0.0003    -0.0000   -0.0007   +0.0000   +0.0004    +0.0128   1    43.512
    242      11-53      8.1141   +0.0010    +0.0000   +0.0000   +0.0000   +0.0010    +0.0104   1    45.703
    243      11-54      9.2972   -0.0003    -0.0000   +0.0000   +0.0000   -0.0003    +0.0047   1    52.899
    244      11-55      8.9889   +0.0007    +0.0000   +0.0000   +0.0000   +0.0007    +0.0059   1    51.116
    245      11-56     10.3054   +0.0003    +0.0000   +0.0000   +0.0000   +0.0003    +0.0022   1    58.239
    246      11-57      9.2221   +0.0006    +0.0000   +0.0000   +0.0000   +0.0006    +0.0050   1    52.475
    247      11-58      8.8287   +0.0002    -0.0000   +0.0000   +0.0000   +0.0002    +0.0065   1    50.165
    248      11-59      9.5550   +0.0004    +0.0000   +0.0000   +0.0000   +0.0004    +0.0039   1    54.344
    249      11-61      9.1173   +0.0005    +0.0000   +0.0000   +0.0000   +0.0005    +0.0054   1    51.874
    250      11-63     10.9180   +0.0002    -0.0000   +0.0000   +0.0000   +0.0002    +0.0013   1    61.075
    251      11-64     10.6559   +0.0002    -0.0000   +0.0000   +0.0000   +0.0002    +0.0017   1    59.899
    252      11-66      8.6336   +0.0007    +0.0000   +0.0000   +0.0000   +0.0007    +0.0075   1    48.979
    253      11-68      7.3392   +0.0015    +0.0000   -0.0001   +0.0000   +0.0016    +0.0166   1    40.589
    254      11-70      5.1477   +0.0035    +0.0000   -0.0009   +0.0000   +0.0045    +0.0476   1    25.728
    255      11-72      7.9139   +0.0010    +0.0000   -0.0001   +0.0000   +0.0011    +0.0118   1    44.414
    256      11-74      9.6809   +0.0003    +0.0000   +0.0000   +0.0000   +0.0003    +0.0036   1    55.033
    257      11-76     11.6630   +0.0001    +0.0000   +0.0000   +0.0000   +0.0001    +0.0007   1    64.105
    258      11-78     14.2245   +0.0000    +0.0000   +0.0000   +0.0000   +0.0000    +0.0001   1    71.389
    259      12-45      7.3601   +0.0053    +0.0059   -0.0016   +0.0000   +0.0010    +0.0164   1    40.733
    260      12-46      8.3014   +0.0035    +0.0032   +0.0000   +0.0000   +0.0003    +0.0093   1    46.907
    261      12-47      9.2891   +0.0033    +0.0031   +0.0000   +0.0000   +0.0002    +0.0047   1    52.861
    262      12-48     10.0803   +0.0019    +0.0019   +0.0000   +0.0000   +0.0000    +0.0026   1    57.117
    263      12-49      9.3909   +0.0019    +0.0018   +0.0000   +0.0000   +0.0000    +0.0044   1    53.437
    264      12-50      8.3661   -0.0050    -0.0054   +0.0000   +0.0000   +0.0004    +0.0089   1    47.310
    265      12-51      9.0737   +0.0004    +0.0005   +0.0000   +0.0000   -0.0002    +0.0055   1    51.614
    266      12-52      7.7702   -0.0070    -0.0070   -0.0007   +0.0000   +0.0008    +0.0129   1    43.473
    267      12-53      8.3870   +0.0041    +0.0032   +0.0000   +0.0000   +0.0008    +0.0088   1    47.439
    268      12-54      8.8319   -0.0012    -0.0010   +0.0000   +0.0000   -0.0002    +0.0065   1    50.186
    269      12-55      7.9689   +0.0060    +0.0047   -0.0001   +0.0000   +0.0013    +0.0114   1    44.773
    270      12-56      9.6194   +0.0036    +0.0032   +0.0000   +0.0000   +0.0004    +0.0037   1    54.700
    271      12-57      8.7910   +0.0046    +0.0038   +0.0000   +0.0000   +0.0008    +0.0067   1    49.930
    272      12-58     11.0486   -0.0034    -0.0035   +0.0000   +0.0000   +0.0001    +0.0012   1    61.641
    273      12-59     11.8959   +0.0017    +0.0017   +0.0000   +0.0000   +0.0001    +0.0006   1    64.963
    274      12-61      6.0367   +0.0094    +0.0067   -0.0004   +0.0000   +0.0031    +0.0324   1    31.705
    275      12-63      5.8219   -0.0211    -0.0225   -0.0041   +0.0000   +0.0055    +0.0358   1    30.236
    276      12-64      5.5374   -0.0245    -0.0253   -0.0055   +0.0000   +0.0062    +0.0405   1    28.326
    277      12-66      3.3746   +0.0247    +0.0253   -0.0087   +0.0000   +0.0080    +0.0852   1    15.032
    278      12-68      3.3756   +0.0247    +0.0253   -0.0087   +0.0000   +0.0080    +0.0852   1    15.032
    279      12-70      4.3976   +0.0174    +0.0139   -0.0024   +0.0000   +0.0059    +0.0628   1    20.957
    280      12-72      7.7331   +0.0050    +0.0038   -0.0001   +0.0000   +0.0012    +0.0132   1    43.220
    281      12-74     10.4366   +0.0023    +0.0021   +0.0000   +0.0000   +0.0002    +0.0020   1    58.872
    282      12-76     13.3544   +0.0014    +0.0014   +0.0000   +0.0000   +0.0000    +0.0001   1    69.403
    283      12-78     19.5144   +0.0009    +0.0009   +0.0000   +0.0000   +0.0000    +0.0000   1    76.986
    284      13-45      7.2825   -0.0015    -0.0000   -0.0017   +0.0000   +0.0002    +0.0171   1    40.214
    285      13-46      8.3853   -0.0002    -0.0000   +0.0000   +0.0000   -0.0002    +0.0088   1    47.439
    286      13-47      9.7431   -0.0000    -0.0000   +0.0000   +0.0000   -0.0000    +0.0034   1    55.361
    287      13-48      9.8148   -0.0001    -0.0000   +0.0000   +0.0000   -0.0001    +0.0032   1    55.743
    288      13-49      8.7764   -0.0003    -0.0000   +0.0000   +0.0000   -0.0003    +0.0068   1    49.843
    289      13-50      7.4070   -0.0006    +0.0000   -0.0009   +0.0000   +0.0003    +0.0159   1    41.046
    290      13-51      9.2856   -0.0004    -0.0000   +0.0000   +0.0000   -0.0004    +0.0047   1    52.842
    291      13-52      8.6415   +0.0003    +0.0000   +0.0000   +0.0000   +0.0003    +0.0074   1    49.024
    292      13-53      8.8977   +0.0006    -0.0000   +0.0000   +0.0000   +0.0006    +0.0062   1    50.577
    293      13-54     10.3873   -0.0001    +0.0000   +0.0000   +0.0000   -0.0001    +0.0021   1    58.634
    294      13-55     10.0136   +0.0003    -0.0000   +0.0000   +0.0000   +0.0003    +0.0028   1    56.776
    295      13-56     11.3825   +0.0001    -0.0000   +0.0000   +0.0000   +0.0001    +0.0009   1    63.016
    296      13-57     10.3764   +0.0002    -0.0000   +0.0000   +0.0000   +0.0002    +0.0021   1    58.584
    297      13-58      9.9551   +0.0001    +0.0000   +0.0000   +0.0000   +0.0001    +0.0029   1    56.478
    298      13-59     10.7052   +0.0001    -0.0000   +0.0000   +0.0000   +0.0001    +0.0016   1    60.127
    299      13-61     10.1376   +0.0002    -0.0000   +0.0000   +0.0000   +0.0002    +0.0025   1    57.406
    300      13-63     11.6869   +0.0001    +0.0000   +0.0000   +0.0000   +0.0001    +0.0007   1    64.195
    301      13-64     11.4628   +0.0001    +0.0000   +0.0000   +0.0000   +0.0001    +0.0008   1    63.335
    302      13-66      9.2687   +0.0005    -0.0000   +0.0000   +0.0000   +0.0005    +0.0048   1    52.746
    303      13-68      7.1925   +0.0016    -0.0000   -0.0001   +0.0000   +0.0017    +0.0180   1    39.601
    304      13-70      4.6400   +0.0037    -0.0000   -0.0018   +0.0000   +0.0054    +0.0577   1    22.463
    305      13-72      7.0873   +0.0017    -0.0000   -0.0001   +0.0000   +0.0018    +0.0190   1    38.888
    306      13-74      8.5874   +0.0007    -0.0000   +0.0000   +0.0000   +0.0007    +0.0077   1    48.689
    307      13-76     10.4645   +0.0002    -0.0000   +0.0000   +0.0000   +0.0002    +0.0019   1    59.007
    308      13-78     13.1917   +0.0000    -0.0000   +0.0000   +0.0000   +0.0000    +0.0002   1    68.982
    309      14-45      6.9006   +0.0047    +0.0059   -0.0023   +0.0000   +0.0011    +0.0211   1    37.609
    310      14-46      7.9629   +0.0023    +0.0030   -0.0010   +0.0000   +0.0002    +0.0115   1    44.735
    311      14-47      9.0965   +0.0029    +0.0027   +0.0000   +0.0000   +0.0002    +0.0054   1    51.745
    312      14-48      9.7628   +0.0018    +0.0017   +0.0000   +0.0000   +0.0000    +0.0033   1    55.463
    313      14-49      8.9528   +0.0017    +0.0017   +0.0000   +0.0000   +0.0000    +0.0060   1    50.899
    314      14-50      7.7910   -0.0056    -0.0054   -0.0007   +0.0000   +0.0005    +0.0127   1    43.605
    315      14-51      8.7864   +0.0002    +0.0005   +0.0000   +0.0000   -0.0003    +0.0067   1    49.908
    316      14-52      7.5778   -0.0064    -0.0063   -0.0008   +0.0000   +0.0008    +0.0144   1    42.191
    317      14-53      8.1513   +0.0039    +0.0029   +0.0000   +0.0000   +0.0010    +0.0102   1    45.950
    318      14-54      8.8736   -0.0010    -0.0008   +0.0000   +0.0000   -0.0002    +0.0063   1    50.429
    319      14-55      8.0847   +0.0051    +0.0039   +0.0000   +0.0000   +0.0013    +0.0106   1    45.517
    320      14-56      9.7520   +0.0030    +0.0027   +0.0000   +0.0000   +0.0004    +0.0034   1    55.412
    321      14-57      8.8314   +0.0040    +0.0032   +0.0000   +0.0000   +0.0008    +0.0065   1    50.175
    322      14-58     10.6026   -0.0031    -0.0032   +0.0000   +0.0000   +0.0001    +0.0017   1    59.655
    323      14-59     11.4600   +0.0016    +0.0015   +0.0000   +0.0000   +0.0001    +0.0008   1    63.325
    324      14-61      6.5459   +0.0069    +0.0048   -0.0002   +0.0000   +0.0024    +0.0253   1    35.190
    325      14-63      6.9232   -0.0112    -0.0130   -0.0014   +0.0000   +0.0031    +0.0208   1    37.763
    326      14-64      6.6151   -0.0125    -0.0144   -0.0019   +0.0000   +0.0037    +0.0244   1    35.662
    327      14-66      4.2485   +0.0161    +0.0129   -0.0030   +0.0000   +0.0062    +0.0659   1    20.052
    328      14-70      3.2394   +0.0230    +0.0237   -0.0091   +0.0000   +0.0083    +0.0883   1    14.296
    329      14-72      6.8105   +0.0063    +0.0044   -0.0002   +0.0000   +0.0021    +0.0221   1    37.001
    330      14-74      9.4623   +0.0025    +0.0022   +0.0000   +0.0000   +0.0004    +0.0042   1    53.835
    331      14-76     12.3027   +0.0014    +0.0013   +0.0000   +0.0000   +0.0000    +0.0004   1    66.357
    332      14-78     18.0673   +0.0008    +0.0008   +0.0000   +0.0000   +0.0000    +0.0000   1    76.188
    333      15-45      8.5968   -0.0092    -0.0097   +0.0000   +0.0000   +0.0004    +0.0076   1    48.745
    334      15-46      9.5193   -0.0054    -0.0056   +0.0000   +0.0000   +0.0002    +0.0040   1    54.145
    335      15-47     10.4661   -0.0055    -0.0056   +0.0000   +0.0000   +0.0001    +0.0019   1    59.014
    336      15-48     11.2726   -0.0035    -0.0035   +0.0000   +0.0000   +0.0000    +0.0010   1    62.576
    337      15-49     10.5843   -0.0033    -0.0033   +0.0000   +0.0000   +0.0001    +0.0018   1    59.566
    338      15-50      9.5954   +0.0095    +0.0093   +0.0000   +0.0000   +0.0001    +0.0038   1    54.567
    339      15-51     10.1916   -0.0010    -0.0010   +0.0000   +0.0000   +0.0000    +0.0024   1    57.675
    340      15-52      8.9452   +0.0121    +0.0119   +0.0000   +0.0000   +0.0003    +0.0060   1    50.858
    341      15-53      9.5524   -0.0054    -0.0056   +0.0000   +0.0000   +0.0002    +0.0039   1    54.326
    342      15-54      9.9307   +0.0017    +0.0017   +0.0000   +0.0000   +0.0000    +0.0029   1    56.348
    343      15-55      9.0511   -0.0078    -0.0082   +0.0000   +0.0000   +0.0003    +0.0056   1    51.483
    344      15-56     10.6781   -0.0059    -0.0060   +0.0000   +0.0000   +0.0001    +0.0016   1    60.000
    345      15-57      9.8714   -0.0067    -0.0069   +0.0000   +0.0000   +0.0002    +0.0031   1    56.044
    346      15-58     12.2732   +0.0067    +0.0067   +0.0000   +0.0000   +0.0000    +0.0004   1    66.261
    347      15-59     13.1122   -0.0032    -0.0032   +0.0000   +0.0000   +0.0000    +0.0002   1    68.769
    348      15-61      6.7273   -0.0108    -0.0119   +0.0000   -0.0000   +0.0011    +0.0231   1    36.432
    349      15-63      6.2394   +0.0449    +0.0437   -0.0015   +0.0000   +0.0027    +0.0295   1    33.079
    350      15-64      5.8117   +0.0524    +0.0515   -0.0024   +0.0000   +0.0033    +0.0360   1    30.163
    351      15-66      3.5414   -0.0587    -0.0517   +0.0000   -0.0109   +0.0039    +0.0815   1    15.949
    352      15-68      2.9463   -0.1394    -0.0778   +0.0000   -0.0662   +0.0046    +0.0947   1    12.772
    353      15-70      4.9422   -0.0221    -0.0242   +0.0000   -0.0004   +0.0025    +0.0516   1    24.398
    354      15-72      7.5263   -0.0086    -0.0093   +0.0000   -0.0000   +0.0007    +0.0149   1    41.845
    355      15-74     10.2474   -0.0048    -0.0049   +0.0000   +0.0000   +0.0001    +0.0023   1    57.955
    356      15-76     13.2217   -0.0032    -0.0032   +0.0000   +0.0000   +0.0000    +0.0002   1    69.063
    357      15-78     19.9203   -0.0019    -0.0019   +0.0000   +0.0000   +0.0000    +0.0000   1    77.153
    358      16-45      8.3973   -0.0000    -0.0001   +0.0000   +0.0000   +0.0001    +0.0087   1    47.509
    359      16-46      9.4749   -0.0002    -0.0001   +0.0000   +0.0000   -0.0001    +0.0041   1    53.900
    360      16-47     10.8102   -0.0001    -0.0001   +0.0000   +0.0000   -0.0000    +0.0015   1    60.598
    361      16-48     10.7780   -0.0001    -0.0001   +0.0000   +0.0000   -0.0000    +0.0015   1    60.456
    362      16-49      9.7128   -0.0002    -0.0001   +0.0000   +0.0000   -0.0001    +0.0035   1    55.198
    363      16-50      8.3874   +0.0003    +0.0002   +0.0000   +0.0000   +0.0002    +0.0088   1    47.450
    364      16-51     10.2656   -0.0002    -0.0000   +0.0000   +0.0000   -0.0002    +0.0023   1    58.045
    365      16-52      9.8013   +0.0002    +0.0001   +0.0000   +0.0000   +0.0001    +0.0032   1    55.676
    366      16-53     10.0116   +0.0002    -0.0001   +0.0000   +0.0000   +0.0003    +0.0028   1    56.768
    367      16-54     11.5340   -0.0000    +0.0000   +0.0000   +0.0000   -0.0000    +0.0008   1    63.616
    368      16-55     11.2141   +0.0000    -0.0001   +0.0000   +0.0000   +0.0001    +0.0010   1    62.336
    369      16-56     12.5265   -0.0000    -0.0001   +0.0000   +0.0000   +0.0000    +0.0003   1    67.071
    370      16-57     11.5084   +0.0000    -0.0001   +0.0000   +0.0000   +0.0001    +0.0008   1    63.516
    371      16-58     10.8103   +0.0002    +0.0001   +0.0000   +0.0000   +0.0001    +0.0015   1    60.598
    372      16-59     11.5099   +0.0000    -0.0001   +0.0000   +0.0000   +0.0001    +0.0008   1    63.521
    373      16-61     11.3364   +0.0000    -0.0001   +0.0000   +0.0000   +0.0001    +0.0009   1    62.834
    374      16-63     12.9992   +0.0002    +0.0001   +0.0000   +0.0000   +0.0000    +0.0002   1    68.461
    375      16-64     12.7200   +0.0002    +0.0001   +0.0000   +0.0000   +0.0000    +0.0003   1    67.658
    376      16-66     10.4423   +0.0001    -0.0001   +0.0000   +0.0000   +0.0002    +0.0020   1    58.901
    377      16-68      8.0651   +0.0009    -0.0001   +0.0000   +0.0000   +0.0010    +0.0108   1    45.392
    378      16-70      5.6037   +0.0029    -0.0002   -0.0006   +0.0000   +0.0037    +0.0394   1    28.759
    379      16-72      7.2044   +0.0014    -0.0001   -0.0001   +0.0000   +0.0017    +0.0179   1    39.675
    380      16-74      8.3271   +0.0008    -0.0001   +0.0000   +0.0000   +0.0009    +0.0091   1    47.061
    381      16-76      9.8852   +0.0002    -0.0001   +0.0000   +0.0000   +0.0003    +0.0031   1    56.110
    382      16-78     11.9252   +0.0000    -0.0001   +0.0000   +0.0000   +0.0001    +0.0005   1    65.066
    383      17-45      8.2081   +0.0061    +0.0055   +0.0000   +0.0000   +0.0007    +0.0098   1    46.305
    384      17-46      9.3004   +0.0032    +0.0030   +0.0000   +0.0000   +0.0002    +0.0047   1    52.918
    385      17-47     10.4993   +0.0029    +0.0028   +0.0000   +0.0000   +0.0001    +0.0019   1    59.170
    386      17-48     11.1083   +0.0019    +0.0019   +0.0000   +0.0000   +0.0000    +0.0011   1    61.892
    387      17-49     10.2291   +0.0019    +0.0018   +0.0000   +0.0000   +0.0000    +0.0023   1    57.865
    388      17-50      9.0109   -0.0051    -0.0054   +0.0000   +0.0000   +0.0003    +0.0058   1    51.249
    389      17-51     10.1016   +0.0005    +0.0005   +0.0000   +0.0000   -0.0001    +0.0026   1    57.227
    390      17-52      8.9404   -0.0057    -0.0061   +0.0000   +0.0000   +0.0004    +0.0061   1    50.827
    391      17-53      9.4520   +0.0033    +0.0030   +0.0000   +0.0000   +0.0004    +0.0042   1    53.771
    392      17-54     10.3575   -0.0009    -0.0008   +0.0000   +0.0000   -0.0000    +0.0021   1    58.489
    393      17-55      9.5861   +0.0042    +0.0037   +0.0000   +0.0000   +0.0004    +0.0038   1    54.514
    394      17-56     11.2528   +0.0029    +0.0028   +0.0000   +0.0000   +0.0001    +0.0010   1    62.496
    395      17-57     10.3106   +0.0035    +0.0033   +0.0000   +0.0000   +0.0003    +0.0022   1    58.261
    396      17-58     11.8736   -0.0036    -0.0036   +0.0000   +0.0000   +0.0000    +0.0006   1    64.883
    397      17-59     12.7305   +0.0018    +0.0017   +0.0000   +0.0000   +0.0000    +0.0003   1    67.691
    398      17-61      7.9117   +0.0053    +0.0043   -0.0001   +0.0000   +0.0011    +0.0118   1    44.401
    399      17-63      8.3239   -0.0104    -0.0118   +0.0000   +0.0000   +0.0014    +0.0091   1    47.050
    400      17-64      7.8944   -0.0120    -0.0132   -0.0006   +0.0000   +0.0019    +0.0119   1    44.285
    401      17-66      5.2347   +0.0144    +0.0109   -0.0008   +0.0000   +0.0043    +0.0460   1    26.301
    402      17-72      5.2994   +0.0140    +0.0106   -0.0008   +0.0000   +0.0042    +0.0448   1    26.732
    403      17-74      7.9663   +0.0052    +0.0042   -0.0001   +0.0000   +0.0011    +0.0114   1    44.747
    404      17-76     10.8481   +0.0024    +0.0023   +0.0000   +0.0000   +0.0001    +0.0014   1    60.765
    405      17-78     17.0594   +0.0012    +0.0012   +0.0000   +0.0000   +0.0000    +0.0000   1    75.389
    406      18-45      9.4997   -0.0006    -0.0007   +0.0000   +0.0000   +0.0001    +0.0041   1    54.036
    407      18-46     10.5014   -0.0004    -0.0004   +0.0000   +0.0000   -0.0000    +0.0019   1    59.177
    408      18-47     11.8907   -0.0004    -0.0004   +0.0000   +0.0000   +0.0000    +0.0006   1    64.944
    409      18-48     11.9371   -0.0003    -0.0003   +0.0000   +0.0000   -0.0000    +0.0005   1    65.108
    410      18-49     10.9335   -0.0003    -0.0003   +0.0000   +0.0000   -0.0000    +0.0013   1    61.144
    411      18-50      9.5783   +0.0009    +0.0008   +0.0000   +0.0000   +0.0001    +0.0038   1    54.469
    412      18-51     11.5218   -0.0001    -0.0001   +0.0000   +0.0000   -0.0001    +0.0008   1    63.569
    413      18-52     10.7185   +0.0008    +0.0007   +0.0000   +0.0000   +0.0001    +0.0016   1    60.186
    414      18-53     10.8625   -0.0003    -0.0004   +0.0000   +0.0000   +0.0001    +0.0014   1    60.829
    415      18-54     12.6218   +0.0001    +0.0001   +0.0000   +0.0000   -0.0000    +0.0003   1    67.361
    416      18-55     12.2531   -0.0004    -0.0004   +0.0000   +0.0000   +0.0000    +0.0004   1    66.193
    417      18-56     13.6006   -0.0003    -0.0003   +0.0000   +0.0000   +0.0000    +0.0001   1    70.012
    418      18-57     12.6514   -0.0004    -0.0004   +0.0000   +0.0000   +0.0000    +0.0003   1    67.451
    419      18-58     11.9309   +0.0006    +0.0006   +0.0000   +0.0000   +0.0000    +0.0005   1    65.089
    420      18-59     12.6505   -0.0003    -0.0003   +0.0000   +0.0000   +0.0000    +0.0003   1    67.451
    421      18-61     12.4201   -0.0003    -0.0003   +0.0000   +0.0000   +0.0000    +0.0003   1    66.736
    422      18-63     13.8666   +0.0008    +0.0008   +0.0000   +0.0000   +0.0000    +0.0001   1    70.627
    423      18-64     13.6377   +0.0008    +0.0008   +0.0000   +0.0000   +0.0000    +0.0001   1    70.100
    424      18-66     11.2692   -0.0003    -0.0004   +0.0000   +0.0000   +0.0001    +0.0010   1    62.559
    425      18-68      8.3430   +0.0002    -0.0006   +0.0000   +0.0000   +0.0009    +0.0090   1    47.168
    426      18-70      5.6720   +0.0016    -0.0015   -0.0005   +0.0000   +0.0036    +0.0382   1    29.225
    427      18-72      6.8013   +0.0009    -0.0010   -0.0002   +0.0000   +0.0021    +0.0222   1    36.938
    428      18-74      7.4862   +0.0005    -0.0008   -0.0001   +0.0000   +0.0014    +0.0152   1    41.581
    429      18-76      8.8221   +0.0000    -0.0006   +0.0000   +0.0000   +0.0006    +0.0066   1    50.122
    430      18-78     10.9255   -0.0003    -0.0004   +0.0000   +0.0000   +0.0001    +0.0013   1    61.106
    431      19-45      8.1988   +0.0059    +0.0053   +0.0000   +0.0000   +0.0006    +0.0099   1    46.256
    432      19-46      9.3236   +0.0030    +0.0029   +0.0000   +0.0000   +0.0002    +0.0046   1    53.051
    433      19-47     10.6239   +0.0028    +0.0027   +0.0000   +0.0000   +0.0001    +0.0017   1    59.750
    434      19-48     11.1218   +0.0018    +0.0018   +0.0000   +0.0000   +0.0000    +0.0011   1    61.951
    435      19-49     10.1795   +0.0018    +0.0018   +0.0000   +0.0000   +0.0000    +0.0024   1    57.614
    436      19-50      8.8691   -0.0051    -0.0054   +0.0000   +0.0000   +0.0003    +0.0064   1    50.408
    437      19-51     10.2199   +0.0004    +0.0005   +0.0000   +0.0000   -0.0001    +0.0024   1    57.819
    438      19-52      9.0842   -0.0053    -0.0057   +0.0000   +0.0000   +0.0003    +0.0055   1    51.674
    439      19-53      9.5194   +0.0032    +0.0028   +0.0000   +0.0000   +0.0004    +0.0040   1    54.145
    440      19-54     10.6972   -0.0008    -0.0007   +0.0000   +0.0000   -0.0000    +0.0016   1    60.087
    441      19-55     10.0008   +0.0036    +0.0033   +0.0000   +0.0000   +0.0003    +0.0028   1    56.712
    442      19-56     11.6402   +0.0026    +0.0025   +0.0000   +0.0000   +0.0001    +0.0007   1    64.019
    443      19-57     10.6705   +0.0031    +0.0029   +0.0000   +0.0000   +0.0002    +0.0016   1    59.966
    444      19-58     11.7313   -0.0035    -0.0036   +0.0000   +0.0000   +0.0000    +0.0007   1    64.360
    445      19-59     12.5835   +0.0017    +0.0017   +0.0000   +0.0000   +0.0000    +0.0003   1    67.248
    446      19-61      8.7731   +0.0039    +0.0033   +0.0000   +0.0000   +0.0006    +0.0068   1    49.822
    447      19-63      9.4965   -0.0080    -0.0087   +0.0000   +0.0000   +0.0006    +0.0041   1    54.018
    448      19-64      9.1160   -0.0086    -0.0094   +0.0000   +0.0000   +0.0008    +0.0054   1    51.864
    449      19-66      6.4730   +0.0087    +0.0064   -0.0002   +0.0000   +0.0025    +0.0263   1    34.680
    450      19-72      4.6452   +0.0175    +0.0138   -0.0018   +0.0000   +0.0054    +0.0575   1    22.506
    451      19-74      7.1022   +0.0069    +0.0052   -0.0001   +0.0000   +0.0018    +0.0189   1    38.993
    452      19-76      9.8390   +0.0029    +0.0026   +0.0000   +0.0000   +0.0003    +0.0032   1    55.869
    453      19-78     15.5745   +0.0013    +0.0013   +0.0000   +0.0000   +0.0000    +0.0000   1    73.689
    454      20-45     10.7666   +0.0007    +0.0006   +0.0000   +0.0000   +0.0000    +0.0015   1    60.403
    455      20-46     11.7488   +0.0004    +0.0004   +0.0000   +0.0000   -0.0000    +0.0006   1    64.429
    456      20-47     13.1074   +0.0004    +0.0004   +0.0000   +0.0000   +0.0000    +0.0002   1    68.756
    457      20-48     13.0533   +0.0003    +0.0003   +0.0000   +0.0000   -0.0000    +0.0002   1    68.609
    458      20-49     12.0301   +0.0003    +0.0003   +0.0000   +0.0000   -0.0000    +0.0005   1    65.438
    459      20-50     10.7238   -0.0007    -0.0008   +0.0000   +0.0000   +0.0000    +0.0016   1    60.206
    460      20-51     12.6562   +0.0001    +0.0001   +0.0000   +0.0000   -0.0000    +0.0003   1    67.466
    461      20-52     12.0402   -0.0007    -0.0007   +0.0000   +0.0000   +0.0000    +0.0005   1    65.469
    462      20-53     12.1495   +0.0004    +0.0004   +0.0000   +0.0000   +0.0000    +0.0004   1    65.846
    463      20-54     13.9114   -0.0001    -0.0001   +0.0000   +0.0000   -0.0000    +0.0001   1    70.725
    464      20-55     13.5981   +0.0004    +0.0004   +0.0000   +0.0000   +0.0000    +0.0001   1    70.007
    465      20-56     14.8868   +0.0004    +0.0004   +0.0000   +0.0000   +0.0000    +0.0000   1    72.623
    466      20-57     13.9248   +0.0004    +0.0004   +0.0000   +0.0000   +0.0000    +0.0001   1    70.755
    467      20-58     12.9489   -0.0006    -0.0006   +0.0000   +0.0000   +0.0000    +0.0002   1    68.319
    468      20-59     13.6146   +0.0003    +0.0003   +0.0000   +0.0000   +0.0000    +0.0001   1    70.045
    469      20-61     13.7855   +0.0003    +0.0003   +0.0000   +0.0000   +0.0000    +0.0001   1    70.444
    470      20-63     15.3566   -0.0008    -0.0008   +0.0000   +0.0000   +0.0000    +0.0000   1    73.373
    471      20-64     15.0809   -0.0008    -0.0009   +0.0000   +0.0000   +0.0000    +0.0000   1    72.944
    472      20-66     12.6656   +0.0004    +0.0004   +0.0000   +0.0000   +0.0000    +0.0003   1    67.496
    473      20-68      9.6064   +0.0009    +0.0006   +0.0000   +0.0000   +0.0004    +0.0038   1    54.629
    474      20-70      7.0989   +0.0028    +0.0011   -0.0001   +0.0000   +0.0018    +0.0189   1    38.963
    475      20-72      7.4755   +0.0023    +0.0010   -0.0001   +0.0000   +0.0014    +0.0153   1    41.511
    476      20-74      7.6742   +0.0021    +0.0009   -0.0001   +0.0000   +0.0013    +0.0136   1    42.831
    477      20-76      8.5059   +0.0015    +0.0007   +0.0000   +0.0000   +0.0008    +0.0081   1    48.191
    478      20-78      9.4823   +0.0010    +0.0006   +0.0000   +0.0000   +0.0004    +0.0041   1    53.945
    479      21-45      9.6959   +0.0010    +0.0009   +0.0000   +0.0000   +0.0001    +0.0035   1    55.111
    480      21-46     10.8064   +0.0005    +0.0005   +0.0000   +0.0000   -0.0000    +0.0015   1    60.579
    481      21-47     12.1335   +0.0005    +0.0005   +0.0000   +0.0000   +0.0000    +0.0005   1    65.794
    482      21-48     12.6150   +0.0004    +0.0004   +0.0000   +0.0000   -0.0000    +0.0003   1    67.343
    483      21-49     11.6518   +0.0003    +0.0003   +0.0000   +0.0000   -0.0000    +0.0007   1    64.064
    484      21-50     10.3271   -0.0009    -0.0010   +0.0000   +0.0000   +0.0001    +0.0022   1    58.342
    485      21-51     11.7063   +0.0001    +0.0001   +0.0000   +0.0000   -0.0000    +0.0007   1    64.270
    486      21-52     10.5515   -0.0010    -0.0011   +0.0000   +0.0000   +0.0001    +0.0018   1    59.414
    487      21-53     10.9398   +0.0007    +0.0005   +0.0000   +0.0000   +0.0001    +0.0013   1    61.169
    488      21-54     12.2337   -0.0002    -0.0001   +0.0000   +0.0000   -0.0000    +0.0004   1    66.130
    489      21-55     11.5330   +0.0007    +0.0006   +0.0000   +0.0000   +0.0001    +0.0008   1    63.611
    490      21-56     13.1749   +0.0005    +0.0005   +0.0000   +0.0000   +0.0000    +0.0002   1    68.938
    491      21-57     12.2116   +0.0006    +0.0006   +0.0000   +0.0000   +0.0000    +0.0004   1    66.053
    492      21-58     13.1776   -0.0007    -0.0007   +0.0000   +0.0000   +0.0000    +0.0002   1    68.944
    493      21-59     14.0263   +0.0004    +0.0004   +0.0000   +0.0000   +0.0000    +0.0001   1    70.975
    494      21-61     10.1816   +0.0008    +0.0006   +0.0000   +0.0000   +0.0002    +0.0024   1    57.629
    495      21-63     10.8282   -0.0015    -0.0017   +0.0000   +0.0000   +0.0002    +0.0014   1    60.682
    496      21-64     10.3865   -0.0016    -0.0018   +0.0000   +0.0000   +0.0003    +0.0021   1    58.634
    497      21-66      7.6045   +0.0024    +0.0011   -0.0001   +0.0000   +0.0013    +0.0142   1    42.369
    498      21-68      3.1594   +0.0077    +0.0083   -0.0091   +0.0000   +0.0085    +0.0900   1    13.883
    499      21-72      3.1877   +0.0074    +0.0081   -0.0091   +0.0000   +0.0084    +0.0893   1    14.038
    500      21-74      5.5846   +0.0054    +0.0023   -0.0006   +0.0000   +0.0037    +0.0397   1    28.646
    501      21-76      8.3785   +0.0017    +0.0009   +0.0000   +0.0000   +0.0008    +0.0088   1    47.392
    502      21-78     14.7059   +0.0003    +0.0003   +0.0000   +0.0000   +0.0000    +0.0000   1    72.308
    503      22-45     12.0168   +0.0005    +0.0005   +0.0000   +0.0000   +0.0000    +0.0005   1    65.388
    504      22-46     13.0466   +0.0003    +0.0003   +0.0000   +0.0000   -0.0000    +0.0002   1    68.590
    505      22-47     14.4184   +0.0003    +0.0003   +0.0000   +0.0000   +0.0000    +0.0000   1    71.773
    506      22-48     14.4029   +0.0002    +0.0003   +0.0000   +0.0000   -0.0000    +0.0000   1    71.744
    507      22-49     13.3423   +0.0002    +0.0002   +0.0000   +0.0000   -0.0000    +0.0001   1    69.373
    508      22-50     12.0277   -0.0006    -0.0006   +0.0000   +0.0000   +0.0000    +0.0005   1    65.429
    509      22-51     13.8773   +0.0001    +0.0001   +0.0000   +0.0000   -0.0000    +0.0001   1    70.650
    510      22-52     13.2746   -0.0006    -0.0006   +0.0000   +0.0000   +0.0000    +0.0001   1    69.198
    511      22-53     13.4121   +0.0003    +0.0003   +0.0000   +0.0000   +0.0000    +0.0001   1    69.551
    512      22-54     15.1440   -0.0001    -0.0001   +0.0000   +0.0000   -0.0000    +0.0000   1    73.045
    513      22-55     14.7796   +0.0004    +0.0004   +0.0000   +0.0000   +0.0000    +0.0000   1    72.437
    514      22-56     16.1311   +0.0003    +0.0003   +0.0000   +0.0000   +0.0000    +0.0000   1    74.412
    515      22-57     15.1353   +0.0004    +0.0004   +0.0000   +0.0000   +0.0000    +0.0000   1    73.032
    516      22-58     14.3678   -0.0005    -0.0005   +0.0000   +0.0000   +0.0000    +0.0000   1    71.674
    517      22-59     15.0467   +0.0003    +0.0003   +0.0000   +0.0000   +0.0000    +0.0000   1    72.888
    518      22-61     14.6119   +0.0003    +0.0003   +0.0000   +0.0000   +0.0000    +0.0000   1    72.138
    519      22-63     16.1247   -0.0008    -0.0008   +0.0000   +0.0000   +0.0000    +0.0000   1    74.405
    520      22-64     15.7516   -0.0008    -0.0008   +0.0000   +0.0000   +0.0000    +0.0000   1    73.931
    521      22-66     13.1500   +0.0004    +0.0003   +0.0000   +0.0000   +0.0000    +0.0002   1    68.871
    522      22-68      9.5902   +0.0009    +0.0006   +0.0000   +0.0000   +0.0004    +0.0038   1    54.540
    523      22-70      7.4545   +0.0024    +0.0010   -0.0001   +0.0000   +0.0015    +0.0155   1    41.371
    524      22-72      6.7363   +0.0032    +0.0012   -0.0002   +0.0000   +0.0022    +0.0230   1    36.496
    525      22-74      6.5025   +0.0036    +0.0013   -0.0002   +0.0000   +0.0024    +0.0259   1    34.894
    526      22-76      7.0698   +0.0028    +0.0011   -0.0001   +0.0000   +0.0018    +0.0192   1    38.768
    527      22-78      8.5602   +0.0015    +0.0007   +0.0000   +0.0000   +0.0007    +0.0078   1    48.520
    528      23-45     10.1084   +0.0009    +0.0008   +0.0000   +0.0000   +0.0001    +0.0026   1    57.258
    529      23-46     11.2275   +0.0005    +0.0005   +0.0000   +0.0000   -0.0000    +0.0010   1    62.388
    530      23-47     12.6013   +0.0005    +0.0005   +0.0000   +0.0000   +0.0000    +0.0003   1    67.301
    531      23-48     12.9683   +0.0003    +0.0003   +0.0000   +0.0000   -0.0000    +0.0002   1    68.373
    532      23-49     11.9579   +0.0003    +0.0003   +0.0000   +0.0000   -0.0000    +0.0005   1    65.182
    533      23-50     10.5969   -0.0008    -0.0009   +0.0000   +0.0000   +0.0000    +0.0017   1    59.628
    534      23-51     12.1362   +0.0001    +0.0001   +0.0000   +0.0000   -0.0000    +0.0005   1    65.802
    535      23-52     11.0884   -0.0009    -0.0009   +0.0000   +0.0000   +0.0000    +0.0012   1    61.809
    536      23-53     11.4143   +0.0005    +0.0005   +0.0000   +0.0000   +0.0001    +0.0009   1    63.147
    537      23-54     12.8672   -0.0001    -0.0001   +0.0000   +0.0000   -0.0000    +0.0002   1    68.089
    538      23-55     12.2405   +0.0006    +0.0005   +0.0000   +0.0000   +0.0000    +0.0004   1    66.151
    539      23-56     13.8362   +0.0005    +0.0004   +0.0000   +0.0000   +0.0000    +0.0001   1    70.559
    540      23-57     12.8497   +0.0005    +0.0005   +0.0000   +0.0000   +0.0000    +0.0002   1    68.037
    541      23-58     13.3919   -0.0007    -0.0007   +0.0000   +0.0000   +0.0000    +0.0001   1    69.498
    542      23-59     14.2166   +0.0003    +0.0003   +0.0000   +0.0000   +0.0000    +0.0001   1    71.373
    543      23-61     11.1802   +0.0006    +0.0005   +0.0000   +0.0000   +0.0001    +0.0011   1    62.191
    544      23-63     12.0758   -0.0012    -0.0013   +0.0000   +0.0000   +0.0001    +0.0005   1    65.595
    545      23-64     11.6445   -0.0013    -0.0014   +0.0000   +0.0000   +0.0001    +0.0007   1    64.039
    546      23-66      8.8696   +0.0013    +0.0007   +0.0000   +0.0000   +0.0006    +0.0064   1    50.408
    547      23-68      4.6047   +0.0069    +0.0033   -0.0018   +0.0000   +0.0055    +0.0584   1    22.251
    548      23-70      3.2825   +0.0062    +0.0070   -0.0091   +0.0000   +0.0082    +0.0873   1    14.526
    549      23-74      4.8679   +0.0065    +0.0029   -0.0013   +0.0000   +0.0050    +0.0530   1    23.926
    550      23-76      7.3946   +0.0025    +0.0011   -0.0001   +0.0000   +0.0015    +0.0160   1    40.961
    551      23-78     13.1815   +0.0004    +0.0004   +0.0000   +0.0000   +0.0000    +0.0002   1    68.956
    552      24-45     13.2750   -0.0004    -0.0004   +0.0000   +0.0000   +0.0000    +0.0001   1    69.201
    553      24-46     14.2794   -0.0002    -0.0002   +0.0000   +0.0000   -0.0000    +0.0001   1    71.499
    554      24-47     15.6287   -0.0003    -0.0003   +0.0000   +0.0000   +0.0000    +0.0000   1    73.764
    555      24-48     15.5363   -0.0002    -0.0002   +0.0000   +0.0000   -0.0000    +0.0000   1    73.635
    556      24-49     14.4719   -0.0002    -0.0002   +0.0000   +0.0000   -0.0000    +0.0000   1    71.875
    557      24-50     13.1960   +0.0005    +0.0005   +0.0000   +0.0000   +0.0000    +0.0002   1    68.994
    558      24-51     15.0485   -0.0000    -0.0000   +0.0000   +0.0000   -0.0000    +0.0000   1    72.892
    559      24-52     14.5652   +0.0005    +0.0004   +0.0000   +0.0000   +0.0000    +0.0000   1    72.051
    560      24-53     14.6697   -0.0002    -0.0002   +0.0000   +0.0000   +0.0000    +0.0000   1    72.243
    561      24-54     16.4204   +0.0001    +0.0001   +0.0000   +0.0000   -0.0000    +0.0000   1    74.746
    562      24-55     16.1025   -0.0003    -0.0003   +0.0000   +0.0000   +0.0000    +0.0000   1    74.378
    563      24-56     17.4026   -0.0003    -0.0003   +0.0000   +0.0000   +0.0000    +0.0000   1    75.689
    564      24-57     16.4056   -0.0003    -0.0003   +0.0000   +0.0000   +0.0000    +0.0000   1    74.729
    565      24-58     15.4155   +0.0004    +0.0004   +0.0000   +0.0000   +0.0000    +0.0000   1    73.460
    566      24-59     16.0500   -0.0002    -0.0002   +0.0000   +0.0000   +0.0000    +0.0000   1    74.314
    567      24-61     16.0054   -0.0002    -0.0002   +0.0000   +0.0000   +0.0000    +0.0000   1    74.259
    568      24-63     17.6106   +0.0006    +0.0006   +0.0000   +0.0000   +0.0000    +0.0000   1    75.856
    569      24-64     17.2184   +0.0006    +0.0006   +0.0000   +0.0000   +0.0000    +0.0000   1    75.532
    570      24-66     14.6085   -0.0002    -0.0002   +0.0000   +0.0000   +0.0000    +0.0000   1    72.132
    571      24-68     11.0299   -0.0003    -0.0004   +0.0000   +0.0000   +0.0001    +0.0012   1    61.562
    572      24-70      8.9534   +0.0000    -0.0006   +0.0000   +0.0000   +0.0006    +0.0060   1    50.910
    573      24-72      7.8766   +0.0003    -0.0007   -0.0001   +0.0000   +0.0011    +0.0121   1    44.168
    574      24-74      7.2153   +0.0007    -0.0009   -0.0001   +0.0000   +0.0017    +0.0178   1    39.748
    575      24-76      7.1686   +0.0007    -0.0009   -0.0001   +0.0000   +0.0017    +0.0182   1    39.439
    576      24-78      7.0902   +0.0007    -0.0009   -0.0001   +0.0000   +0.0018    +0.0190   1    38.903
    577      25-45     11.6523   +0.0022    +0.0022   +0.0000   +0.0000   +0.0000    +0.0007   1    64.064
    578      25-46     12.7671   +0.0013    +0.0013   +0.0000   +0.0000   +0.0000    +0.0002   1    67.795
    579      25-47     14.1447   +0.0014    +0.0014   +0.0000   +0.0000   +0.0000    +0.0001   1    71.226
    580      25-48     14.5071   +0.0010    +0.0010   +0.0000   +0.0000   +0.0000    +0.0000   1    71.942
    581      25-49     13.4810   +0.0009    +0.0009   +0.0000   +0.0000   +0.0000    +0.0001   1    69.721
    582      25-50     12.1259   -0.0024    -0.0025   +0.0000   +0.0000   +0.0000    +0.0005   1    65.767
    583      25-51     13.6389   +0.0002    +0.0002   +0.0000   +0.0000   -0.0000    +0.0001   1    70.102
    584      25-52     12.6072   -0.0025    -0.0026   +0.0000   +0.0000   +0.0000    +0.0003   1    67.320
    585      25-53     12.9154   +0.0014    +0.0013   +0.0000   +0.0000   +0.0000    +0.0002   1    68.224
    586      25-54     14.4003   -0.0004    -0.0004   +0.0000   +0.0000   -0.0000    +0.0000   1    71.738
    587      25-55     13.7616   +0.0016    +0.0016   +0.0000   +0.0000   +0.0000    +0.0001   1    70.389
    588      25-56     15.3662   +0.0014    +0.0014   +0.0000   +0.0000   +0.0000    +0.0000   1    73.386
    589      25-57     14.3768   +0.0015    +0.0015   +0.0000   +0.0000   +0.0000    +0.0000   1    71.693
    590      25-58     14.9191   -0.0020    -0.0020   +0.0000   +0.0000   +0.0000    +0.0000   1    72.678
    591      25-59     15.7381   +0.0010    +0.0010   +0.0000   +0.0000   +0.0000    +0.0000   1    73.914
    592      25-61     12.5236   +0.0014    +0.0014   +0.0000   +0.0000   +0.0000    +0.0003   1    67.060
    593      25-63     13.3536   -0.0039    -0.0039   +0.0000   +0.0000   +0.0000    +0.0001   1    69.403
    594      25-64     12.8568   -0.0041    -0.0041   +0.0000   +0.0000   +0.0000    +0.0002   1    68.058
    595      25-66      9.9801   +0.0023    +0.0021   +0.0000   +0.0000   +0.0003    +0.0028   1    56.608
    596      25-68      5.2610   +0.0119    +0.0084   -0.0008   +0.0000   +0.0043    +0.0455   1    26.478
    597      25-70      4.5160   +0.0156    +0.0120   -0.0021   +0.0000   +0.0057    +0.0602   1    21.694
    598      25-74      3.3259   +0.0232    +0.0240   -0.0090   +0.0000   +0.0081    +0.0864   1    14.754
    599      25-76      5.9259   +0.0092    +0.0064   -0.0004   +0.0000   +0.0032    +0.0341   1    30.940
    600      25-78     12.4928   +0.0014    +0.0014   +0.0000   +0.0000   +0.0000    +0.0003   1    66.966
    601      26-45     14.2492   -0.0001    -0.0001   +0.0000   +0.0000   +0.0000    +0.0001   1    71.440
    602      26-46     15.1835   -0.0000    -0.0000   +0.0000   +0.0000   -0.0000    +0.0000   1    73.108
    603      26-47     16.5712   -0.0000    -0.0000   +0.0000   +0.0000   -0.0000    +0.0000   1    74.908
    604      26-48     16.5407   -0.0000    -0.0000   +0.0000   +0.0000   -0.0000    +0.0000   1    74.876
    605      26-49     15.5375   -0.0000    -0.0000   +0.0000   +0.0000   -0.0000    +0.0000   1    73.636
    606      26-50     14.2333   +0.0001    +0.0001   +0.0000   +0.0000   +0.0000    +0.0001   1    71.406
    607      26-51     16.1668   -0.0000    -0.0000   +0.0000   +0.0000   -0.0000    +0.0000   1    74.455
    608      26-52     15.3962   +0.0001    +0.0001   +0.0000   +0.0000   +0.0000    +0.0000   1    73.432
    609      26-53     15.4432   -0.0000    -0.0000   +0.0000   +0.0000   +0.0000    +0.0000   1    73.500
    610      26-54     17.3845   +0.0000    +0.0000   +0.0000   +0.0000   -0.0000    +0.0000   1    75.674
    611      26-55     17.0378   -0.0000    -0.0000   +0.0000   +0.0000   +0.0000    +0.0000   1    75.370
    612      26-56     18.3515   -0.0000    -0.0000   +0.0000   +0.0000   +0.0000    +0.0000   1    76.373
    613      26-57     17.4227   -0.0000    -0.0000   +0.0000   +0.0000   +0.0000    +0.0000   1    75.705
    614      26-58     16.3792   +0.0001    +0.0001   +0.0000   +0.0000   +0.0000    +0.0000   1    74.699
    615      26-59     17.0311   -0.0000    -0.0000   +0.0000   +0.0000   +0.0000    +0.0000   1    75.363
    616      26-61     17.0860   -0.0000    -0.0000   +0.0000   +0.0000   +0.0000    +0.0000   1    75.413
    617      26-63     18.5141   +0.0001    +0.0001   +0.0000   +0.0000   +0.0000    +0.0000   1    76.472
    618      26-64     18.2002   +0.0001    +0.0001   +0.0000   +0.0000   +0.0000    +0.0000   1    76.277
    619      26-66     15.5901   -0.0000    -0.0000   +0.0000   +0.0000   +0.0000    +0.0000   1    73.710
    620      26-68     11.7845   +0.0000    -0.0001   +0.0000   +0.0000   +0.0001    +0.0006   1    64.556
    621      26-70      9.5419   +0.0003    -0.0001   +0.0000   +0.0000   +0.0004    +0.0039   1    54.272
    622      26-72      8.3592   +0.0007    -0.0001   +0.0000   +0.0000   +0.0008    +0.0089   1    47.274
    623      26-74      7.2400   +0.0014    -0.0001   -0.0001   +0.0000   +0.0017    +0.0175   1    39.924
    624      26-76      6.7407   +0.0018    -0.0002   -0.0002   +0.0000   +0.0022    +0.0229   1    36.512
    625      26-78      6.2250   +0.0023    -0.0002   -0.0003   +0.0000   +0.0028    +0.0296   1    32.994
    626      27-45     12.3031   +0.0011    +0.0010   +0.0000   +0.0000   +0.0000    +0.0004   1    66.357
    627      27-46     13.3990   +0.0007    +0.0007   +0.0000   +0.0000   +0.0000    +0.0001   1    69.519
    628      27-47     14.8033   +0.0007    +0.0007   +0.0000   +0.0000   +0.0000    +0.0000   1    72.480
    629      27-48     15.0771   +0.0005    +0.0005   +0.0000   +0.0000   -0.0000    +0.0000   1    72.939
    630      27-49     14.0336   +0.0004    +0.0004   +0.0000   +0.0000   -0.0000    +0.0001   1    70.992
    631      27-50     12.6649   -0.0012    -0.0012   +0.0000   +0.0000   +0.0000    +0.0003   1    67.492
    632      27-51     14.2993   +0.0001    +0.0001   +0.0000   +0.0000   -0.0000    +0.0000   1    71.541
    633      27-52     13.3232   -0.0012    -0.0012   +0.0000   +0.0000   +0.0000    +0.0001   1    69.326
    634      27-53     13.5718   +0.0007    +0.0007   +0.0000   +0.0000   +0.0000    +0.0001   1    69.943
    635      27-54     15.1930   -0.0002    -0.0002   +0.0000   +0.0000   -0.0000    +0.0000   1    73.123
    636      27-55     14.6142   +0.0008    +0.0008   +0.0000   +0.0000   +0.0000    +0.0000   1    72.142
    637      27-56     16.1720   +0.0007    +0.0007   +0.0000   +0.0000   +0.0000    +0.0000   1    74.461
    638      27-57     15.1812   +0.0007    +0.0007   +0.0000   +0.0000   +0.0000    +0.0000   1    73.105
    639      27-58     15.3633   -0.0010    -0.0010   +0.0000   +0.0000   +0.0000    +0.0000   1    73.383
    640      27-59     16.1557   +0.0005    +0.0005   +0.0000   +0.0000   +0.0000    +0.0000   1    74.442
    641      27-61     13.6432   +0.0007    +0.0006   +0.0000   +0.0000   +0.0000    +0.0001   1    70.113
    642      27-63     14.6321   -0.0018    -0.0018   +0.0000   +0.0000   +0.0000    +0.0000   1    72.175
    643      27-64     14.1636   -0.0019    -0.0019   +0.0000   +0.0000   +0.0000    +0.0001   1    71.265
    644      27-66     11.3118   +0.0010    +0.0009   +0.0000   +0.0000   +0.0001    +0.0009   1    62.733
    645      27-68      6.7600   +0.0045    +0.0025   -0.0002   +0.0000   +0.0021    +0.0227   1    36.654
    646      27-70      5.5494   +0.0071    +0.0039   -0.0006   +0.0000   +0.0038    +0.0403   1    28.401
    647      27-76      5.0457   +0.0085    +0.0049   -0.0011   +0.0000   +0.0047    +0.0495   1    25.067
    648      27-78     10.9526   +0.0010    +0.0009   +0.0000   +0.0000   +0.0001    +0.0013   1    61.225
    649      28-45     15.3702   -0.0000    -0.0000   +0.0000   +0.0000   +0.0000    +0.0000   1    73.392
    650      28-46     16.2854   -0.0000    -0.0000   +0.0000   +0.0000   -0.0000    +0.0000   1    74.593
    651      28-47     17.6530   -0.0000    -0.0000   +0.0000   +0.0000   -0.0000    +0.0000   1    75.889
    652      28-48     17.5662   -0.0000    -0.0000   +0.0000   +0.0000   -0.0000    +0.0000   1    75.821
    653      28-49     16.5631   -0.0000    -0.0000   +0.0000   +0.0000   -0.0000    +0.0000   1    74.899
    654      28-50     15.2901   +0.0001    +0.0001   +0.0000   +0.0000   +0.0000    +0.0000   1    73.273
    655      28-51     17.2215   -0.0000    -0.0000   +0.0000   +0.0000   -0.0000    +0.0000   1    75.534
    656      28-52     16.5411   +0.0001    +0.0001   +0.0000   +0.0000   +0.0000    +0.0000   1    74.876
    657      28-53     16.5656   -0.0000    -0.0000   +0.0000   +0.0000   +0.0000    +0.0000   1    74.902
    658      28-54     18.5135   +0.0000    +0.0000   +0.0000   +0.0000   -0.0000    +0.0000   1    76.472
    659      28-55     18.2020   -0.0000    -0.0000   +0.0000   +0.0000   +0.0000    +0.0000   1    76.278
    660      28-56     19.4758   -0.0000    -0.0000   +0.0000   +0.0000   +0.0000    +0.0000   1    76.968
    661      28-57     18.5471   -0.0000    -0.0000   +0.0000   +0.0000   +0.0000    +0.0000   1    76.492
    662      28-58     17.3424   +0.0001    +0.0001   +0.0000   +0.0000   +0.0000    +0.0000   1    75.638
    663      28-59     17.9594   -0.0000    -0.0000   +0.0000   +0.0000   +0.0000    +0.0000   1    76.114
    664      28-61     18.3055   -0.0000    -0.0000   +0.0000   +0.0000   +0.0000    +0.0000   1    76.344
    665      28-63     19.8045   +0.0001    +0.0001   +0.0000   +0.0000   +0.0000    +0.0000   1    77.108
    666      28-64     19.4778   +0.0001    +0.0001   +0.0000   +0.0000   +0.0000    +0.0000   1    76.969
    667      28-66     16.8652   -0.0000    -0.0000   +0.0000   +0.0000   +0.0000    +0.0000   1    75.206
    668      28-68     13.0691   -0.0000    -0.0000   +0.0000   +0.0000   +0.0000    +0.0002   1    68.652
    669      28-70     10.8667   +0.0001    -0.0001   +0.0000   +0.0000   +0.0001    +0.0014   1    60.848
    670      28-72      9.5115   +0.0003    -0.0001   +0.0000   +0.0000   +0.0004    +0.0040   1    54.109
    671      28-74      8.1810   +0.0008    -0.0001   +0.0000   +0.0000   +0.0009    +0.0100   1    46.134
    672      28-76      7.2541   +0.0014    -0.0001   -0.0001   +0.0000   +0.0016    +0.0174   1    40.011
    673      28-78      4.9368   +0.0033    -0.0003   -0.0012   +0.0000   +0.0049    +0.0517   1    24.357
    674      29-45     13.8057   +0.0017    +0.0017   +0.0000   +0.0000   +0.0000    +0.0001   1    70.490
    675      29-46     14.8688   +0.0011    +0.0011   +0.0000   +0.0000   +0.0000    +0.0000   1    72.592
    676      29-47     16.2906   +0.0012    +0.0012   +0.0000   +0.0000   +0.0000    +0.0000   1    74.599
    677      29-48     16.5951   +0.0008    +0.0008   +0.0000   +0.0000   +0.0000    +0.0000   1    74.933
    678      29-49     15.5706   +0.0008    +0.0008   +0.0000   +0.0000   +0.0000    +0.0000   1    73.683
    679      29-50     14.1942   -0.0020    -0.0020   +0.0000   +0.0000   +0.0000    +0.0001   1    71.328
    680      29-51     15.8424   +0.0002    +0.0002   +0.0000   +0.0000   -0.0000    +0.0000   1    74.051
    681      29-52     14.7422   -0.0021    -0.0021   +0.0000   +0.0000   +0.0000    +0.0000   1    72.372
    682      29-53     14.9598   +0.0011    +0.0011   +0.0000   +0.0000   +0.0000    +0.0000   1    72.746
    683      29-54     16.6747   -0.0003    -0.0003   +0.0000   +0.0000   -0.0000    +0.0000   1    75.016
    684      29-55     16.0717   +0.0013    +0.0013   +0.0000   +0.0000   +0.0000    +0.0000   1    74.340
    685      29-56     17.6442   +0.0012    +0.0012   +0.0000   +0.0000   +0.0000    +0.0000   1    75.882
    686      29-57     16.6831   +0.0013    +0.0013   +0.0000   +0.0000   +0.0000    +0.0000   1    75.025
    687      29-58     16.8656   -0.0018    -0.0018   +0.0000   +0.0000   +0.0000    +0.0000   1    75.207
    688      29-59     17.6642   +0.0009    +0.0009   +0.0000   +0.0000   +0.0000    +0.0000   1    75.897
    689      29-61     15.0593   +0.0011    +0.0011   +0.0000   +0.0000   +0.0000    +0.0000   1    72.910
    690      29-63     15.9098   -0.0032    -0.0032   +0.0000   +0.0000   +0.0000    +0.0000   1    74.138
    691      29-64     15.4460   -0.0033    -0.0033   +0.0000   +0.0000   +0.0000    +0.0000   1    73.504
    692      29-66     12.5589   +0.0015    +0.0014   +0.0000   +0.0000   +0.0000    +0.0003   1    67.171
    693      29-68      7.7457   +0.0048    +0.0036   -0.0001   +0.0000   +0.0012    +0.0131   1    43.300
    694      29-70      6.7305   +0.0069    +0.0049   -0.0002   +0.0000   +0.0022    +0.0230   1    36.448
    695      29-72      3.4521   +0.0223    +0.0226   -0.0082   +0.0000   +0.0079    +0.0835   1    15.456
    696      29-76      3.5302   +0.0217    +0.0215   -0.0076   +0.0000   +0.0077    +0.0818   1    15.876
    697      29-78     10.4172   +0.0022    +0.0020   +0.0000   +0.0000   +0.0002    +0.0020   1    58.779
    698      30-45     16.3765   -0.0002    -0.0002   +0.0000   +0.0000   +0.0000    +0.0000   1    74.697
    699      30-46     17.2313   -0.0001    -0.0001   +0.0000   +0.0000   -0.0000    +0.0000   1    75.543
    700      30-47     18.6282   -0.0002    -0.0002   +0.0000   +0.0000   +0.0000    +0.0000   1    76.539
    701      30-48     18.5963   -0.0001    -0.0001   +0.0000   +0.0000   -0.0000    +0.0000   1    76.521
    702      30-49     17.6470   -0.0001    -0.0001   +0.0000   +0.0000   -0.0000    +0.0000   1    75.884
    703      30-50     16.3514   +0.0003    +0.0003   +0.0000   +0.0000   +0.0000    +0.0000   1    74.668
    704      30-51     18.3477   -0.0000    -0.0000   +0.0000   +0.0000   -0.0000    +0.0000   1    76.371
    705      30-52     17.4232   +0.0003    +0.0003   +0.0000   +0.0000   +0.0000    +0.0000   1    75.706
    706      30-53     17.3993   -0.0001    -0.0001   +0.0000   +0.0000   +0.0000    +0.0000   1    75.686
    707      30-54     19.5040   +0.0000    +0.0000   +0.0000   +0.0000   -0.0000    +0.0000   1    76.981
    708      30-55     19.1677   -0.0002    -0.0002   +0.0000   +0.0000   +0.0000    +0.0000   1    76.825
    709      30-56     20.4515   -0.0002    -0.0002   +0.0000   +0.0000   +0.0000    +0.0000   1    77.343
    710      30-57     19.5831   -0.0002    -0.0002   +0.0000   +0.0000   +0.0000    +0.0000   1    77.015
    711      30-58     18.3409   +0.0003    +0.0003   +0.0000   +0.0000   +0.0000    +0.0000   1    76.367
    712      30-59     18.9727   -0.0001    -0.0001   +0.0000   +0.0000   +0.0000    +0.0000   1    76.727
    713      30-61     19.3952   -0.0001    -0.0001   +0.0000   +0.0000   +0.0000    +0.0000   1    76.932
    714      30-63     20.7398   +0.0004    +0.0004   +0.0000   +0.0000   +0.0000    +0.0000   1    77.434
    715      30-64     20.4823   +0.0004    +0.0004   +0.0000   +0.0000   +0.0000    +0.0000   1    77.353
    716      30-66     17.8754   -0.0001    -0.0001   +0.0000   +0.0000   +0.0000    +0.0000   1    76.054
    717      30-68     13.9127   -0.0002    -0.0002   +0.0000   +0.0000   +0.0000    +0.0001   1    70.730
    718      30-70     11.5908   -0.0002    -0.0003   +0.0000   +0.0000   +0.0001    +0.0007   1    63.835
    719      30-72     10.1946   -0.0001    -0.0003   +0.0000   +0.0000   +0.0002    +0.0024   1    57.690
    720      30-74      8.5404   +0.0003    -0.0005   +0.0000   +0.0000   +0.0007    +0.0079   1    48.407
    721      30-76      7.2358   +0.0009    -0.0007   -0.0001   +0.0000   +0.0017    +0.0175   1    39.894
    722      30-78      4.2852   +0.0011    -0.0023   -0.0028   +0.0000   +0.0061    +0.0651   1    20.274
    723      31-45     14.5320   +0.0008    +0.0008   +0.0000   +0.0000   +0.0000    +0.0000   1    71.989
    724      31-46     15.5843   +0.0005    +0.0005   +0.0000   +0.0000   +0.0000    +0.0000   1    73.702
    725      31-47     17.0106   +0.0006    +0.0006   +0.0000   +0.0000   +0.0000    +0.0000   1    75.344
    726      31-48     17.2247   +0.0004    +0.0004   +0.0000   +0.0000   -0.0000    +0.0000   1    75.537
    727      31-49     16.1815   +0.0004    +0.0004   +0.0000   +0.0000   -0.0000    +0.0000   1    74.472
    728      31-50     14.8122   -0.0010    -0.0010   +0.0000   +0.0000   +0.0000    +0.0000   1    72.494
    729      31-51     16.5313   +0.0001    +0.0001   +0.0000   +0.0000   -0.0000    +0.0000   1    74.866
    730      31-52     15.5434   -0.0010    -0.0010   +0.0000   +0.0000   +0.0000    +0.0000   1    73.645
    731      31-53     15.7206   +0.0005    +0.0005   +0.0000   +0.0000   +0.0000    +0.0000   1    73.890
    732      31-54     17.5019   -0.0002    -0.0002   +0.0000   +0.0000   -0.0000    +0.0000   1    75.770
    733      31-55     16.9576   +0.0006    +0.0006   +0.0000   +0.0000   +0.0000    +0.0000   1    75.294
    734      31-56     18.4812   +0.0006    +0.0006   +0.0000   +0.0000   +0.0000    +0.0000   1    76.453
    735      31-57     17.5091   +0.0006    +0.0006   +0.0000   +0.0000   +0.0000    +0.0000   1    75.776
    736      31-58     17.3909   -0.0009    -0.0009   +0.0000   +0.0000   +0.0000    +0.0000   1    75.679
    737      31-59     18.1556   +0.0005    +0.0005   +0.0000   +0.0000   +0.0000    +0.0000   1    76.247
    738      31-61     16.1312   +0.0005    +0.0005   +0.0000   +0.0000   +0.0000    +0.0000   1    74.412
    739      31-63     17.1508   -0.0015    -0.0015   +0.0000   +0.0000   +0.0000    +0.0000   1    75.472
    740      31-64     16.6897   -0.0015    -0.0015   +0.0000   +0.0000   +0.0000    +0.0000   1    75.031
    741      31-66     13.8143   +0.0007    +0.0006   +0.0000   +0.0000   +0.0000    +0.0001   1    70.508
    742      31-68      9.1535   +0.0018    +0.0013   +0.0000   +0.0000   +0.0005    +0.0052   1    52.083
    743      31-70      7.8944   +0.0029    +0.0018   -0.0001   +0.0000   +0.0011    +0.0119   1    44.285
    744      31-72      4.8620   +0.0091    +0.0054   -0.0013   +0.0000   +0.0050    +0.0531   1    23.885
    745      31-78      8.8766   +0.0020    +0.0014   +0.0000   +0.0000   +0.0006    +0.0063   1    50.450
    746      32-45     17.6536   +0.0003    +0.0003   +0.0000   +0.0000   +0.0000    +0.0000   1    75.889
    747      32-46     18.4910   +0.0002    +0.0002   +0.0000   +0.0000   -0.0000    +0.0000   1    76.459
    748      32-47     19.8635   +0.0002    +0.0002   +0.0000   +0.0000   +0.0000    +0.0000   1    77.131
    749      32-48     19.7721   +0.0002    +0.0002   +0.0000   +0.0000   -0.0000    +0.0000   1    77.094
    750      32-49     18.8232   +0.0002    +0.0002   +0.0000   +0.0000   -0.0000    +0.0000   1    76.648
    751      32-50     17.5623   -0.0004    -0.0004   +0.0000   +0.0000   +0.0000    +0.0000   1    75.817
    752      32-51     19.5510   +0.0000    +0.0000   +0.0000   +0.0000   -0.0000    +0.0000   1    77.001
    753      32-52     18.7301   -0.0004    -0.0004   +0.0000   +0.0000   +0.0000    +0.0000   1    76.597
    754      32-53     18.6867   +0.0002    +0.0002   +0.0000   +0.0000   +0.0000    +0.0000   1    76.573
    755      32-54     20.7858   -0.0001    -0.0001   +0.0000   +0.0000   -0.0000    +0.0000   1    77.448
    756      32-55     20.4873   +0.0003    +0.0003   +0.0000   +0.0000   +0.0000    +0.0000   1    77.355
    757      32-56     21.7278   +0.0003    +0.0003   +0.0000   +0.0000   +0.0000    +0.0000   1    77.690
    758      32-57     20.8584   +0.0003    +0.0003   +0.0000   +0.0000   +0.0000    +0.0000   1    77.469
    759      32-58     19.4554   -0.0004    -0.0004   +0.0000   +0.0000   +0.0000    +0.0000   1    76.959
    760      32-59     20.0494   +0.0002    +0.0002   +0.0000   +0.0000   +0.0000    +0.0000   1    77.202
    761      32-61     20.7717   +0.0002    +0.0002   +0.0000   +0.0000   +0.0000    +0.0000   1    77.443
    762      32-63     22.1974   -0.0006    -0.0006   +0.0000   +0.0000   +0.0000    +0.0000   1    77.787
    763      32-64     21.9260   -0.0006    -0.0006   +0.0000   +0.0000   +0.0000    +0.0000   1    77.733
    764      32-66     19.3204   +0.0002    +0.0002   +0.0000   +0.0000   +0.0000    +0.0000   1    76.898
    765      32-68     15.3918   +0.0003    +0.0003   +0.0000   +0.0000   +0.0000    +0.0000   1    73.426
    766      32-70     13.1051   +0.0004    +0.0004   +0.0000   +0.0000   +0.0000    +0.0002   1    68.749
    767      32-72     11.6000   +0.0005    +0.0004   +0.0000   +0.0000   +0.0001    +0.0007   1    63.865
    768      32-74      9.8376   +0.0009    +0.0006   +0.0000   +0.0000   +0.0003    +0.0032   1    55.860
    769      32-76      8.2425   +0.0018    +0.0008   +0.0000   +0.0000   +0.0009    +0.0096   1    46.535
    770      33-45     16.0118   +0.0015    +0.0015   +0.0000   +0.0000   +0.0000    +0.0000   1    74.267
    771      33-46     17.0297   +0.0010    +0.0010   +0.0000   +0.0000   +0.0000    +0.0000   1    75.362
    772      33-47     18.4735   +0.0011    +0.0011   +0.0000   +0.0000   +0.0000    +0.0000   1    76.448
    773      33-48     18.7176   +0.0008    +0.0008   +0.0000   +0.0000   +0.0000    +0.0000   1    76.590
    774      33-49     17.6979   +0.0007    +0.0007   +0.0000   +0.0000   +0.0000    +0.0000   1    75.922
    775      33-50     16.3189   -0.0017    -0.0017   +0.0000   +0.0000   +0.0000    +0.0000   1    74.631
    776      33-51     18.0627   +0.0002    +0.0002   +0.0000   +0.0000   -0.0000    +0.0000   1    76.185
    777      33-52     16.9440   -0.0018    -0.0018   +0.0000   +0.0000   +0.0000    +0.0000   1    75.282
    778      33-53     17.0900   +0.0010    +0.0010   +0.0000   +0.0000   +0.0000    +0.0000   1    75.417
    779      33-54     18.9667   -0.0003    -0.0003   +0.0000   +0.0000   -0.0000    +0.0000   1    76.724
    780      33-55     18.4025   +0.0012    +0.0012   +0.0000   +0.0000   +0.0000    +0.0000   1    76.405
    781      33-56     19.9370   +0.0011    +0.0011   +0.0000   +0.0000   +0.0000    +0.0000   1    77.160
    782      33-57     18.9971   +0.0011    +0.0011   +0.0000   +0.0000   +0.0000    +0.0000   1    76.740
    783      33-58     18.8644   -0.0016    -0.0016   +0.0000   +0.0000   +0.0000    +0.0000   1    76.670
    784      33-59     19.6354   +0.0008    +0.0008   +0.0000   +0.0000   +0.0000    +0.0000   1    77.038
    785      33-61     17.5830   +0.0010    +0.0010   +0.0000   +0.0000   +0.0000    +0.0000   1    75.834
    786      33-63     18.4810   -0.0028    -0.0028   +0.0000   +0.0000   +0.0000    +0.0000   1    76.453
    787      33-64     18.0405   -0.0029    -0.0029   +0.0000   +0.0000   +0.0000    +0.0000   1    76.170
    788      33-66     15.1500   +0.0012    +0.0012   +0.0000   +0.0000   +0.0000    +0.0000   1    73.055
    789      33-68     10.3249   +0.0023    +0.0021   +0.0000   +0.0000   +0.0002    +0.0022   1    58.335
    790      33-70      9.1439   +0.0032    +0.0027   +0.0000   +0.0000   +0.0005    +0.0053   1    52.023
    791      33-72      5.8354   +0.0101    +0.0072   -0.0004   +0.0000   +0.0034    +0.0356   1    30.327
    792      33-74      3.3171   +0.0253    +0.0261   -0.0090   +0.0000   +0.0082    +0.0865   1    14.729
    793      33-78      8.4480   +0.0040    +0.0032   +0.0000   +0.0000   +0.0008    +0.0084   1    47.823
    794      34-45     18.8308   +0.0012    +0.0012   +0.0000   +0.0000   +0.0000    +0.0000   1    76.652
    795      34-46     19.7304   +0.0008    +0.0008   +0.0000   +0.0000   +0.0000    +0.0000   1    77.077
    796      34-47     21.1032   +0.0009    +0.0009   +0.0000   +0.0000   +0.0000    +0.0000   1    77.538
    797      34-48     21.0088   +0.0007    +0.0007   +0.0000   +0.0000   +0.0000    +0.0000   1    77.512
    798      34-49     20.0059   +0.0006    +0.0006   +0.0000   +0.0000   +0.0000    +0.0000   1    77.186
    799      34-50     18.7447   -0.0015    -0.0015   +0.0000   +0.0000   +0.0000    +0.0000   1    76.605
    800      34-51     20.6595   +0.0002    +0.0002   +0.0000   +0.0000   -0.0000    +0.0000   1    77.409
    801      34-52     19.9620   -0.0015    -0.0015   +0.0000   +0.0000   +0.0000    +0.0000   1    77.169
    802      34-53     19.9589   +0.0008    +0.0008   +0.0000   +0.0000   +0.0000    +0.0000   1    77.168
    803      34-54     21.9724   -0.0003    -0.0003   +0.0000   +0.0000   -0.0000    +0.0000   1    77.743
    804      34-55     21.6526   +0.0010    +0.0010   +0.0000   +0.0000   +0.0000    +0.0000   1    77.674
    805      34-56     22.9319   +0.0010    +0.0010   +0.0000   +0.0000   +0.0000    +0.0000   1    77.865
    806      34-57     22.0092   +0.0010    +0.0010   +0.0000   +0.0000   +0.0000    +0.0000   1    77.750
    807      34-58     20.7501   -0.0015    -0.0015   +0.0000   +0.0000   +0.0000    +0.0000   1    77.437
    808      34-59     21.3478   +0.0008    +0.0008   +0.0000   +0.0000   +0.0000    +0.0000   1    77.601
    809      34-61     21.6523   +0.0008    +0.0008   +0.0000   +0.0000   +0.0000    +0.0000   1    77.674
    810      34-63     23.1088   -0.0022    -0.0022   +0.0000   +0.0000   +0.0000    +0.0000   1    77.865
    811      34-64     22.7403   -0.0022    -0.0022   +0.0000   +0.0000   +0.0000    +0.0000   1    77.865
    812      34-66     20.0228   +0.0008    +0.0008   +0.0000   +0.0000   +0.0000    +0.0000   1    77.192
    813      34-68     15.9027   +0.0011    +0.0011   +0.0000   +0.0000   +0.0000    +0.0000   1    74.129
    814      34-70     13.9430   +0.0013    +0.0013   +0.0000   +0.0000   +0.0000    +0.0001   1    70.796
    815      34-72     11.8273   +0.0017    +0.0017   +0.0000   +0.0000   +0.0001    +0.0006   1    64.716
    816      34-74      9.8316   +0.0026    +0.0023   +0.0000   +0.0000   +0.0003    +0.0032   1    55.835
    817      34-76      7.8676   +0.0048    +0.0037   -0.0001   +0.0000   +0.0011    +0.0121   1    44.103
    818      35-45     18.1010   +0.0002    +0.0002   +0.0000   +0.0000   +0.0000    +0.0000   1    76.211
    819      35-46     18.8297   +0.0001    +0.0001   +0.0000   +0.0000   -0.0000    +0.0000   1    76.651
    820      35-47     20.2159   +0.0001    +0.0001   +0.0000   +0.0000   +0.0000    +0.0000   1    77.263
    821      35-48     20.1641   +0.0001    +0.0001   +0.0000   +0.0000   -0.0000    +0.0000   1    77.244
    822      35-49     19.3088   +0.0001    +0.0001   +0.0000   +0.0000   -0.0000    +0.0000   1    76.892
    823      35-50     18.0410   -0.0002    -0.0002   +0.0000   +0.0000   +0.0000    +0.0000   1    76.170
    824      35-51     20.1331   +0.0000    +0.0000   +0.0000   +0.0000   -0.0000    +0.0000   1    77.233
    825      35-52     19.0279   -0.0002    -0.0002   +0.0000   +0.0000   +0.0000    +0.0000   1    76.755
    826      35-53     18.9071   +0.0001    +0.0001   +0.0000   +0.0000   +0.0000    +0.0000   1    76.693
    827      35-54     21.1984   -0.0000    -0.0000   +0.0000   +0.0000   -0.0000    +0.0000   1    77.563
    828      35-55     20.9039   +0.0001    +0.0001   +0.0000   +0.0000   +0.0000    +0.0000   1    77.482
    829      35-56     22.1091   +0.0001    +0.0001   +0.0000   +0.0000   +0.0000    +0.0000   1    77.770
    830      35-57     21.3372   +0.0001    +0.0001   +0.0000   +0.0000   +0.0000    +0.0000   1    77.598
    831      35-58     19.7642   -0.0002    -0.0002   +0.0000   +0.0000   +0.0000    +0.0000   1    77.091
    832      35-59     20.3585   +0.0001    +0.0001   +0.0000   +0.0000   +0.0000    +0.0000   1    77.312
    833      35-61     21.5286   +0.0001    +0.0001   +0.0000   +0.0000   +0.0000    +0.0000   1    77.645
    834      35-63     22.8094   -0.0003    -0.0003   +0.0000   +0.0000   +0.0000    +0.0000   1    77.865
    835      35-64     22.6715   -0.0003    -0.0003   +0.0000   +0.0000   +0.0000    +0.0000   1    77.865
    836      35-66     20.1683   +0.0001    +0.0001   +0.0000   +0.0000   +0.0000    +0.0000   1    77.246
    837      35-68     16.2834   +0.0001    +0.0001   +0.0000   +0.0000   +0.0000    +0.0000   1    74.591
    838      35-70     13.6762   +0.0002    +0.0002   +0.0000   +0.0000   +0.0000    +0.0001   1    70.191
    839      35-72     12.6172   +0.0002    +0.0002   +0.0000   +0.0000   +0.0000    +0.0003   1    67.350
    840      35-74     10.8110   +0.0004    +0.0003   +0.0000   +0.0000   +0.0001    +0.0015   1    60.605
    841      35-76      9.2020   +0.0008    +0.0003   +0.0000   +0.0000   +0.0005    +0.0050   1    52.358
    842      35-78      3.5665   +0.0033    +0.0029   -0.0073   +0.0000   +0.0076    +0.0809   1    16.096
    843      36-45     16.6684   +0.0015    +0.0015   +0.0000   +0.0000   +0.0000    +0.0000   1    75.009
    844      36-46     17.6643   +0.0010    +0.0010   +0.0000   +0.0000   +0.0000    +0.0000   1    75.897
    845      36-47     19.1058   +0.0011    +0.0011   +0.0000   +0.0000   +0.0000    +0.0000   1    76.795
    846      36-48     19.2718   +0.0008    +0.0008   +0.0000   +0.0000   +0.0000    +0.0000   1    76.875
    847      36-49     18.2483   +0.0007    +0.0007   +0.0000   +0.0000   +0.0000    +0.0000   1    76.308
    848      36-50     16.8827   -0.0018    -0.0018   +0.0000   +0.0000   +0.0000    +0.0000   1    75.223
    849      36-51     18.6888   +0.0002    +0.0002   +0.0000   +0.0000   -0.0000    +0.0000   1    76.574
    850      36-52     17.6529   -0.0019    -0.0019   +0.0000   +0.0000   +0.0000    +0.0000   1    75.889
    851      36-53     17.7596   +0.0010    +0.0010   +0.0000   +0.0000   +0.0000    +0.0000   1    75.969
    852      36-54     19.6966   -0.0003    -0.0003   +0.0000   +0.0000   -0.0000    +0.0000   1    77.063
    853      36-55     19.1872   +0.0012    +0.0012   +0.0000   +0.0000   +0.0000    +0.0000   1    76.834
    854      36-56     20.6706   +0.0011    +0.0011   +0.0000   +0.0000   +0.0000    +0.0000   1    77.413
    855      36-57     19.7309   +0.0012    +0.0012   +0.0000   +0.0000   +0.0000    +0.0000   1    77.077
    856      36-58     19.3196   -0.0017    -0.0017   +0.0000   +0.0000   +0.0000    +0.0000   1    76.897
    857      36-59     20.0565   +0.0009    +0.0009   +0.0000   +0.0000   +0.0000    +0.0000   1    77.205
    858      36-61     18.5692   +0.0010    +0.0010   +0.0000   +0.0000   +0.0000    +0.0000   1    76.505
    859      36-63     19.6070   -0.0028    -0.0028   +0.0000   +0.0000   +0.0000    +0.0000   1    77.025
    860      36-64     19.1839   -0.0029    -0.0029   +0.0000   +0.0000   +0.0000    +0.0000   1    76.833
    861      36-66     16.3197   +0.0011    +0.0011   +0.0000   +0.0000   +0.0000    +0.0000   1    74.632
    862      36-68     11.6421   +0.0019    +0.0019   +0.0000   +0.0000   +0.0001    +0.0007   1    64.029
    863      36-70     10.2217   +0.0026    +0.0024   +0.0000   +0.0000   +0.0002    +0.0023   1    57.827
    864      36-72      7.2200   +0.0064    +0.0048   -0.0001   +0.0000   +0.0017    +0.0177   1    39.792
    865      36-74      4.8311   +0.0159    +0.0122   -0.0014   +0.0000   +0.0051    +0.0538   1    23.679
    866      36-78      6.9319   +0.0071    +0.0053   -0.0001   +0.0000   +0.0020    +0.0207   1    37.825
    867      37-45     19.3216   +0.0004    +0.0004   +0.0000   +0.0000   +0.0000    +0.0000   1    76.898
    868      37-46     20.2285   +0.0002    +0.0002   +0.0000   +0.0000   -0.0000    +0.0000   1    77.267
    869      37-47     21.6406   +0.0003    +0.0003   +0.0000   +0.0000   +0.0000    +0.0000   1    77.671
    870      37-48     21.6389   +0.0002    +0.0002   +0.0000   +0.0000   -0.0000    +0.0000   1    77.670
    871      37-49     20.6438   +0.0002    +0.0002   +0.0000   +0.0000   -0.0000    +0.0000   1    77.405
    872      37-50     19.3378   -0.0004    -0.0004   +0.0000   +0.0000   +0.0000    +0.0000   1    76.906
    873      37-51     21.2565   +0.0000    +0.0000   +0.0000   +0.0000   -0.0000    +0.0000   1    77.578
    874      37-52     20.3654   -0.0005    -0.0005   +0.0000   +0.0000   +0.0000    +0.0000   1    77.314
    875      37-53     20.3696   +0.0002    +0.0002   +0.0000   +0.0000   +0.0000    +0.0000   1    77.316
    876      37-54     22.4431   -0.0001    -0.0001   +0.0000   +0.0000   -0.0000    +0.0000   1    77.833
    877      37-55     22.0577   +0.0003    +0.0003   +0.0000   +0.0000   +0.0000    +0.0000   1    77.760
    878      37-56     23.4049   +0.0003    +0.0003   +0.0000   +0.0000   +0.0000    +0.0000   1    77.865
    879      37-57     22.4973   +0.0003    +0.0003   +0.0000   +0.0000   +0.0000    +0.0000   1    77.842
    880      37-58     21.4483   -0.0004    -0.0004   +0.0000   +0.0000   +0.0000    +0.0000   1    77.626
    881      37-59     22.0923   +0.0002    +0.0002   +0.0000   +0.0000   +0.0000    +0.0000   1    77.767
    882      37-61     21.9151   +0.0002    +0.0002   +0.0000   +0.0000   +0.0000    +0.0000   1    77.731
    883      37-63     23.1932   -0.0007    -0.0007   +0.0000   +0.0000   +0.0000    +0.0000   1    77.865
    884      37-64     22.8283   -0.0007    -0.0007   +0.0000   +0.0000   +0.0000    +0.0000   1    77.865
    885      37-66     20.0498   +0.0003    +0.0003   +0.0000   +0.0000   +0.0000    +0.0000   1    77.202
    886      37-68     15.6657   +0.0003    +0.0003   +0.0000   +0.0000   +0.0000    +0.0000   1    73.815
    887      37-70     13.8357   +0.0004    +0.0004   +0.0000   +0.0000   +0.0000    +0.0001   1    70.557
    888      37-72     11.3828   +0.0006    +0.0005   +0.0000   +0.0000   +0.0001    +0.0009   1    63.021
    889      37-74      9.0960   +0.0013    +0.0008   +0.0000   +0.0000   +0.0005    +0.0054   1    51.745
    890      37-76      6.8256   +0.0035    +0.0015   -0.0002   +0.0000   +0.0021    +0.0219   1    37.095
    891      38-45     18.1232   +0.0026    +0.0026   +0.0000   +0.0000   +0.0000    +0.0000   1    76.226
    892      38-46     19.0866   +0.0017    +0.0017   +0.0000   +0.0000   +0.0000    +0.0000   1    76.785
    893      38-47     20.5430   +0.0019    +0.0019   +0.0000   +0.0000   +0.0000    +0.0000   1    77.373
    894      38-48     20.7346   +0.0014    +0.0014   +0.0000   +0.0000   +0.0000    +0.0000   1    77.432
    895      38-49     19.7349   +0.0012    +0.0012   +0.0000   +0.0000   +0.0000    +0.0000   1    77.079
    896      38-50     18.3607   -0.0031    -0.0031   +0.0000   +0.0000   +0.0000    +0.0000   1    76.379
    897      38-51     20.1937   +0.0003    +0.0003   +0.0000   +0.0000   +0.0000    +0.0000   1    77.255
    898      38-52     19.0381   -0.0032    -0.0032   +0.0000   +0.0000   +0.0000    +0.0000   1    76.761
    899      38-53     19.1156   +0.0017    +0.0017   +0.0000   +0.0000   +0.0000    +0.0000   1    76.800
    900      38-54     21.1400   -0.0005    -0.0005   +0.0000   +0.0000   +0.0000    +0.0000   1    77.547
    901      38-55     20.6153   +0.0021    +0.0021   +0.0000   +0.0000   +0.0000    +0.0000   1    77.396
    902      38-56     22.1055   +0.0019    +0.0019   +0.0000   +0.0000   +0.0000    +0.0000   1    77.769
    903      38-57     21.1967   +0.0020    +0.0020   +0.0000   +0.0000   +0.0000    +0.0000   1    77.562
    904      38-58     20.7616   -0.0030    -0.0030   +0.0000   +0.0000   +0.0000    +0.0000   1    77.440
    905      38-59     21.5032   +0.0015    +0.0015   +0.0000   +0.0000   +0.0000    +0.0000   1    77.639
    906      38-61     20.0263   +0.0017    +0.0017   +0.0000   +0.0000   +0.0000    +0.0000   1    77.193
    907      38-63     20.9633   -0.0049    -0.0049   +0.0000   +0.0000   +0.0000    +0.0000   1    77.499
    908      38-64     20.5655   -0.0050    -0.0050   +0.0000   +0.0000   +0.0000    +0.0000   1    77.380
    909      38-66     17.6946   +0.0019    +0.0019   +0.0000   +0.0000   +0.0000    +0.0000   1    75.920
    910      38-68     12.9016   +0.0029    +0.0029   +0.0000   +0.0000   +0.0000    +0.0002   1    68.186
    911      38-70     11.5118   +0.0036    +0.0035   +0.0000   +0.0000   +0.0001    +0.0008   1    63.527
    912      38-72      8.3863   +0.0073    +0.0064   +0.0000   +0.0000   +0.0008    +0.0088   1    47.439
    913      38-74      5.7137   +0.0182    +0.0152   -0.0005   +0.0000   +0.0035    +0.0375   1    29.503
    914      38-76      3.1946   +0.0563    +0.0570   -0.0091   +0.0000   +0.0084    +0.0892   1    14.064
    915      38-78      6.7132   +0.0125    +0.0105   -0.0002   +0.0000   +0.0022    +0.0232   1    36.337
    916      39-45     18.5322   +0.0013    +0.0013   +0.0000   +0.0000   +0.0000    +0.0000   1    76.483
    917      39-46     19.5042   +0.0009    +0.0009   +0.0000   +0.0000   +0.0000    +0.0000   1    76.981
    918      39-47     20.9170   +0.0010    +0.0010   +0.0000   +0.0000   +0.0000    +0.0000   1    77.486
    919      39-48     20.9431   +0.0007    +0.0007   +0.0000   +0.0000   +0.0000    +0.0000   1    77.493
    920      39-49     19.9039   +0.0006    +0.0006   +0.0000   +0.0000   +0.0000    +0.0000   1    77.147
    921      39-50     18.5869   -0.0015    -0.0015   +0.0000   +0.0000   +0.0000    +0.0000   1    76.515
    922      39-51     20.4312   +0.0002    +0.0002   +0.0000   +0.0000   -0.0000    +0.0000   1    77.336
    923      39-52     19.6185   -0.0016    -0.0016   +0.0000   +0.0000   +0.0000    +0.0000   1    77.031
    924      39-53     19.6790   +0.0009    +0.0009   +0.0000   +0.0000   +0.0000    +0.0000   1    77.056
    925      39-54     21.6395   -0.0003    -0.0003   +0.0000   +0.0000   -0.0000    +0.0000   1    77.671
    926      39-55     21.2205   +0.0010    +0.0010   +0.0000   +0.0000   +0.0000    +0.0000   1    77.568
    927      39-56     22.6160   +0.0010    +0.0010   +0.0000   +0.0000   +0.0000    +0.0000   1    77.863
    928      39-57     21.6616   +0.0010    +0.0010   +0.0000   +0.0000   +0.0000    +0.0000   1    77.676
    929      39-58     20.8473   -0.0015    -0.0015   +0.0000   +0.0000   +0.0000    +0.0000   1    77.466
    930      39-59     21.5147   +0.0008    +0.0008   +0.0000   +0.0000   +0.0000    +0.0000   1    77.642
    931      39-61     20.8085   +0.0008    +0.0008   +0.0000   +0.0000   +0.0000    +0.0000   1    77.454
    932      39-63     22.0828   -0.0024    -0.0024   +0.0000   +0.0000   +0.0000    +0.0000   1    77.765
    933      39-64     21.6443   -0.0024    -0.0024   +0.0000   +0.0000   +0.0000    +0.0000   1    77.672
    934      39-66     18.8007   +0.0009    +0.0009   +0.0000   +0.0000   +0.0000    +0.0000   1    76.636
    935      39-68     14.3241   +0.0013    +0.0013   +0.0000   +0.0000   +0.0000    +0.0000   1    71.588
    936      39-70     12.7602   +0.0015    +0.0015   +0.0000   +0.0000   +0.0000    +0.0002   1    67.777
    937      39-72      9.9447   +0.0026    +0.0023   +0.0000   +0.0000   +0.0003    +0.0029   1    56.421
    938      39-74      7.6403   +0.0053    +0.0040   -0.0001   +0.0000   +0.0013    +0.0139   1    42.600
    939      39-76      5.3920   +0.0123    +0.0089   -0.0007   +0.0000   +0.0041    +0.0431   1    27.353
    940      39-78      4.2293   +0.0188    +0.0156   -0.0030   +0.0000   +0.0063    +0.0663   1    19.940
    941      40-45     19.5305   +0.0001    +0.0001   +0.0000   +0.0000   +0.0000    +0.0000   1    76.993
    942      40-46     20.3483   +0.0001    +0.0001   +0.0000   +0.0000   -0.0000    +0.0000   1    77.308
    943      40-47     21.7962   +0.0001    +0.0001   +0.0000   +0.0000   +0.0000    +0.0000   1    77.705
    944      40-48     21.8789   +0.0001    +0.0001   +0.0000   +0.0000   -0.0000    +0.0000   1    77.723
    945      40-49     20.9683   +0.0001    +0.0001   +0.0000   +0.0000   -0.0000    +0.0000   1    77.500
    946      40-50     19.6279   -0.0002    -0.0002   +0.0000   +0.0000   +0.0000    +0.0000   1    77.035
    947      40-51     21.6490   +0.0000    +0.0000   +0.0000   +0.0000   -0.0000    +0.0000   1    77.673
    948      40-52     20.4011   -0.0002    -0.0002   +0.0000   +0.0000   +0.0000    +0.0000   1    77.326
    949      40-53     20.3430   +0.0001    +0.0001   +0.0000   +0.0000   +0.0000    +0.0000   1    77.307
    950      40-54     22.6185   -0.0000    -0.0000   +0.0000   +0.0000   -0.0000    +0.0000   1    77.863
    951      40-55     22.2023   +0.0001    +0.0001   +0.0000   +0.0000   +0.0000    +0.0000   1    77.788
    952      40-56     23.5555   +0.0001    +0.0001   +0.0000   +0.0000   +0.0000    +0.0000   1    77.865
    953      40-57     22.7415   +0.0001    +0.0001   +0.0000   +0.0000   +0.0000    +0.0000   1    77.865
    954      40-58     21.6535   -0.0002    -0.0002   +0.0000   +0.0000   +0.0000    +0.0000   1    77.674
    955      40-59     22.3254   +0.0001    +0.0001   +0.0000   +0.0000   +0.0000    +0.0000   1    77.811
    956      40-61     22.3115   +0.0001    +0.0001   +0.0000   +0.0000   +0.0000    +0.0000   1    77.809
    957      40-63     23.3691   -0.0003    -0.0003   +0.0000   +0.0000   +0.0000    +0.0000   1    77.865
    958      40-64     23.1365   -0.0003    -0.0003   +0.0000   +0.0000   +0.0000    +0.0000   1    77.865
    959      40-66     20.4305   +0.0001    +0.0001   +0.0000   +0.0000   +0.0000    +0.0000   1    77.336
    960      40-68     15.9814   +0.0001    +0.0001   +0.0000   +0.0000   +0.0000    +0.0000   1    74.228
    961      40-70     13.8652   +0.0002    +0.0002   +0.0000   +0.0000   +0.0000    +0.0001   1    70.622
    962      40-72     11.7725   +0.0003    +0.0002   +0.0000   +0.0000   +0.0001    +0.0006   1    64.512
    963      40-74      9.3756   +0.0007    +0.0003   +0.0000   +0.0000   +0.0004    +0.0045   1    53.344
    964      40-76      7.0930   +0.0022    +0.0005   -0.0001   +0.0000   +0.0018    +0.0190   1    38.918
    965      40-78      4.0711   +0.0047    +0.0019   -0.0038   +0.0000   +0.0066    +0.0698   1    18.993
    966      41-45     18.8564   -0.0030    -0.0030   +0.0000   +0.0000   +0.0000    +0.0000   1    76.666
    967      41-46     19.8076   -0.0020    -0.0020   +0.0000   +0.0000   +0.0000    +0.0000   1    77.108
    968      41-47     21.2534   -0.0022    -0.0022   +0.0000   +0.0000   +0.0000    +0.0000   1    77.577
    969      41-48     21.3788   -0.0016    -0.0016   +0.0000   +0.0000   +0.0000    +0.0000   1    77.609
    970      41-49     20.3729   -0.0014    -0.0014   +0.0000   +0.0000   +0.0000    +0.0000   1    77.317
    971      41-50     19.0180   +0.0035    +0.0035   +0.0000   +0.0000   +0.0000    +0.0000   1    76.750
    972      41-51     20.8791   -0.0004    -0.0004   +0.0000   +0.0000   +0.0000    +0.0000   1    77.475
    973      41-52     19.8207   +0.0037    +0.0037   +0.0000   +0.0000   +0.0000    +0.0000   1    77.114
    974      41-53     19.8746   -0.0020    -0.0020   +0.0000   +0.0000   +0.0000    +0.0000   1    77.135
    975      41-54     21.9184   +0.0006    +0.0006   +0.0000   +0.0000   +0.0000    +0.0000   1    77.732
    976      41-55     21.4380   -0.0024    -0.0024   +0.0000   +0.0000   +0.0000    +0.0000   1    77.623
    977      41-56     22.8862   -0.0023    -0.0023   +0.0000   +0.0000   +0.0000    +0.0000   1    77.865
    978      41-57     21.9716   -0.0024    -0.0024   +0.0000   +0.0000   +0.0000    +0.0000   1    77.742
    979      41-58     21.3344   +0.0035    +0.0035   +0.0000   +0.0000   +0.0000    +0.0000   1    77.598
    980      41-59     22.0445   -0.0018    -0.0018   +0.0000   +0.0000   +0.0000    +0.0000   1    77.757
    981      41-61     20.9695   -0.0019    -0.0019   +0.0000   +0.0000   +0.0000    +0.0000   1    77.501
    982      41-63     22.0258   +0.0056    +0.0056   +0.0000   +0.0000   +0.0000    +0.0000   1    77.754
    983      41-64     21.6270   +0.0057    +0.0057   +0.0000   +0.0000   +0.0000    +0.0000   1    77.668
    984      41-66     18.7682   -0.0022    -0.0022   +0.0000   +0.0000   +0.0000    +0.0000   1    76.618
    985      41-68     14.0799   -0.0031    -0.0031   +0.0000   +0.0000   +0.0000    +0.0001   1    71.089
    986      41-70     12.5762   -0.0037    -0.0037   +0.0000   +0.0000   +0.0000    +0.0003   1    67.225
    987      41-72      9.5925   -0.0057    -0.0059   +0.0000   +0.0000   +0.0002    +0.0038   1    54.549
    988      41-74      7.0117   -0.0106    -0.0115   +0.0000   -0.0000   +0.0010    +0.0198   1    38.375
    989      41-76      4.4768   -0.0303    -0.0323   +0.0000   -0.0010   +0.0029    +0.0610   1    21.457
    990      41-78      5.4901   -0.0183    -0.0202   +0.0000   -0.0001   +0.0020    +0.0414   1    28.004
    991      42-45     18.7070   -0.0025    -0.0025   +0.0000   +0.0000   +0.0000    +0.0000   1    76.584
    992      42-46     19.6516   -0.0017    -0.0017   +0.0000   +0.0000   +0.0000    +0.0000   1    77.044
    993      42-47     21.1237   -0.0019    -0.0019   +0.0000   +0.0000   +0.0000    +0.0000   1    77.543
    994      42-48     21.3910   -0.0013    -0.0013   +0.0000   +0.0000   +0.0000    +0.0000   1    77.612
    995      42-49     20.4187   -0.0012    -0.0012   +0.0000   +0.0000   +0.0000    +0.0000   1    77.332
    996      42-50     19.0257   +0.0030    +0.0030   +0.0000   +0.0000   +0.0000    +0.0000   1    76.754
    997      42-51     20.8517   -0.0003    -0.0003   +0.0000   +0.0000   -0.0000    +0.0000   1    77.467
    998      42-52     19.5224   +0.0032    +0.0032   +0.0000   +0.0000   +0.0000    +0.0000   1    76.989
    999      42-53     19.5973   -0.0017    -0.0017   +0.0000   +0.0000   +0.0000    +0.0000   1    77.021
   1000      42-54     21.6668   +0.0005    +0.0005   +0.0000   +0.0000   -0.0000    +0.0000   1    77.677
   1001      42-55     21.0943   -0.0021    -0.0021   +0.0000   +0.0000   +0.0000    +0.0000   1    77.535
   1002      42-56     22.6210   -0.0019    -0.0019   +0.0000   +0.0000   +0.0000    +0.0000   1    77.864
   1003      42-57     21.7445   -0.0020    -0.0020   +0.0000   +0.0000   +0.0000    +0.0000   1    77.694
   1004      42-58     21.4617   +0.0029    +0.0029   +0.0000   +0.0000   +0.0000    +0.0000   1    77.629
   1005      42-59     22.2315   -0.0015    -0.0015   +0.0000   +0.0000   +0.0000    +0.0000   1    77.794
   1006      42-61     20.4340   -0.0016    -0.0016   +0.0000   +0.0000   +0.0000    +0.0000   1    77.337
   1007      42-63     21.1862   +0.0049    +0.0049   +0.0000   +0.0000   +0.0000    +0.0000   1    77.560
   1008      42-64     20.8133   +0.0050    +0.0050   +0.0000   +0.0000   +0.0000    +0.0000   1    77.456
   1009      42-66     17.9397   -0.0019    -0.0019   +0.0000   +0.0000   +0.0000    +0.0000   1    76.100
   1010      42-68     12.9976   -0.0029    -0.0029   +0.0000   +0.0000   +0.0000    +0.0002   1    68.454
   1011      42-70     11.7312   -0.0034    -0.0034   +0.0000   +0.0000   +0.0000    +0.0007   1    64.360
   1012      42-72      8.4523   -0.0060    -0.0064   +0.0000   +0.0000   +0.0004    +0.0084   1    47.858
   1013      42-74      5.5767   -0.0145    -0.0163   +0.0000   -0.0001   +0.0019    +0.0398   1    28.590
   1014      42-76      2.8292   -0.1657    -0.0753   +0.0000   -0.0951   +0.0047    +0.0971   1    12.200
   1015      42-78      7.7704   -0.0071    -0.0077   +0.0000   -0.0000   +0.0006    +0.0129   1    43.473
   1016      43-45     19.0119   +0.0004    +0.0004   +0.0000   +0.0000   +0.0000    +0.0000   1    76.747
   1017      43-46     20.0696   +0.0002    +0.0002   +0.0000   +0.0000   -0.0000    +0.0000   1    77.210
   1018      43-47     21.4425   +0.0003    +0.0003   +0.0000   +0.0000   +0.0000    +0.0000   1    77.624
   1019      43-48     21.4017   +0.0002    +0.0002   +0.0000   +0.0000   -0.0000    +0.0000   1    77.614
   1020      43-49     20.2824   +0.0002    +0.0002   +0.0000   +0.0000   -0.0000    +0.0000   1    77.286
   1021      43-50     19.0045   -0.0004    -0.0004   +0.0000   +0.0000   +0.0000    +0.0000   1    76.743
   1022      43-51     20.7197   +0.0000    +0.0000   +0.0000   +0.0000   -0.0000    +0.0000   1    77.428
   1023      43-52     20.2452   -0.0005    -0.0005   +0.0000   +0.0000   +0.0000    +0.0000   1    77.273
   1024      43-53     20.3694   +0.0002    +0.0002   +0.0000   +0.0000   +0.0000    +0.0000   1    77.316
   1025      43-54     22.1215   -0.0001    -0.0001   +0.0000   +0.0000   -0.0000    +0.0000   1    77.773
   1026      43-55     21.7209   +0.0003    +0.0003   +0.0000   +0.0000   +0.0000    +0.0000   1    77.689
   1027      43-56     23.1176   +0.0003    +0.0003   +0.0000   +0.0000   +0.0000    +0.0000   1    77.865
   1028      43-57     22.0745   +0.0003    +0.0003   +0.0000   +0.0000   +0.0000    +0.0000   1    77.763
   1029      43-58     21.3581   -0.0004    -0.0004   +0.0000   +0.0000   +0.0000    +0.0000   1    77.604
   1030      43-59     22.0009   +0.0002    +0.0002   +0.0000   +0.0000   +0.0000    +0.0000   1    77.749
   1031      43-61     20.9887   +0.0002    +0.0002   +0.0000   +0.0000   +0.0000    +0.0000   1    77.506
   1032      43-63     22.4423   -0.0007    -0.0007   +0.0000   +0.0000   +0.0000    +0.0000   1    77.833
   1033      43-64     21.8583   -0.0007    -0.0007   +0.0000   +0.0000   +0.0000    +0.0000   1    77.719
   1034      43-66     18.9322   +0.0003    +0.0003   +0.0000   +0.0000   +0.0000    +0.0000   1    76.706
   1035      43-68     14.4854   +0.0004    +0.0004   +0.0000   +0.0000   +0.0000    +0.0000   1    71.902
   1036      43-70     13.3367   +0.0004    +0.0004   +0.0000   +0.0000   +0.0000    +0.0001   1    69.359
   1037      43-72     10.0191   +0.0009    +0.0007   +0.0000   +0.0000   +0.0003    +0.0028   1    56.808
   1038      43-74      7.8011   +0.0023    +0.0012   -0.0001   +0.0000   +0.0012    +0.0126   1    43.671
   1039      43-76      5.5294   +0.0057    +0.0025   -0.0006   +0.0000   +0.0038    +0.0407   1    28.269
   1040      43-78      4.3804   +0.0077    +0.0043   -0.0025   +0.0000   +0.0059    +0.0631   1    20.869
   1041      44-53      3.8645   -0.0508    -0.0499   +0.0000   -0.0046   +0.0036    +0.0744   1    17.769
   1042      44-55      2.5323   -0.4065    -0.1640   +0.0000   -0.2487   +0.0062    +0.1033   1    10.754
   1043      44-56      3.8949   -0.0636    -0.0639   +0.0000   -0.0042   +0.0044    +0.0737   1    17.956
   1044      44-57      2.7390   -0.2587    -0.1387   +0.0000   -0.1260   +0.0060    +0.0990   1    11.755
   1045      44-59      5.4316   -0.0209    -0.0228   +0.0000   -0.0001   +0.0020    +0.0424   1    27.622
   1046      44-61      4.3836   -0.0357    -0.0374   +0.0000   -0.0013   +0.0030    +0.0631   1    20.869
   1047      44-63      5.8862   +0.0598    +0.0585   -0.0022   +0.0000   +0.0035    +0.0348   1    30.671
   1048      44-64      6.2607   +0.0522    +0.0508   -0.0015   +0.0000   +0.0030    +0.0291   1    33.233
   1049      44-66      6.4527   -0.0141    -0.0154   +0.0000   -0.0000   +0.0013    +0.0265   1    34.547
   1050      44-68      9.1920   -0.0069    -0.0071   +0.0000   +0.0000   +0.0002    +0.0051   1    52.299
   1051      44-70      8.1081   -0.0087    -0.0092   +0.0000   +0.0000   +0.0005    +0.0105   1    45.666
   1052      44-72     12.4972   -0.0041    -0.0041   +0.0000   +0.0000   +0.0000    +0.0003   1    66.978
   1053      44-74     14.9530   -0.0031    -0.0031   +0.0000   +0.0000   +0.0000    +0.0000   1    72.734
   1054      44-76     17.4653   -0.0026    -0.0026   +0.0000   +0.0000   +0.0000    +0.0000   1    75.740
   1055      44-78     20.8432   -0.0021    -0.0021   +0.0000   +0.0000   +0.0000    +0.0000   1    77.465
   1056      45-55      3.0306   +0.0950    +0.0932   -0.0091   +0.0000   +0.0109    +0.0929   1    13.200
   1057      45-56      4.1399   +0.0510    +0.0464   -0.0035   +0.0000   +0.0080    +0.0683   1    19.401
   1058      45-57      3.2582   +0.0807    +0.0794   -0.0091   +0.0000   +0.0103    +0.0878   1    14.398
   1059      45-59      4.5816   +0.0318    +0.0282   -0.0019   +0.0000   +0.0056    +0.0589   1    22.102
   1060      45-60      5.3303   -0.0401    -0.0373   -0.0068   +0.0000   +0.0040    +0.0442   1    26.946
   1061      45-61      5.8103   +0.0192    +0.0163   -0.0004   +0.0000   +0.0034    +0.0360   1    30.163
   1062      45-62      6.8563   +0.0089    +0.0097   -0.0024   +0.0000   +0.0017    +0.0216   1    37.314
   1063      45-63      7.1938   -0.0287    -0.0309   -0.0011   +0.0000   +0.0033    +0.0180   1    39.616
   1064      45-64      7.6861   -0.0249    -0.0267   -0.0007   +0.0000   +0.0025    +0.0135   1    42.912
   1065      45-65      6.8293   -0.0207    -0.0211   -0.0015   +0.0000   +0.0020    +0.0219   1    37.126
   1066      45-66      7.6940   +0.0098    +0.0086   -0.0001   +0.0000   +0.0013    +0.0135   1    42.965
   1067      45-67      8.9821   -0.0111    -0.0116   +0.0000   +0.0000   +0.0005    +0.0059   1    51.075
   1068      45-68      9.8354   +0.0055    +0.0052   +0.0000   +0.0000   +0.0003    +0.0032   1    55.852
   1069      45-69      7.6127   -0.0160    -0.0165   -0.0008   +0.0000   +0.0013    +0.0141   1    42.423
   1070      45-70      8.1533   +0.0086    +0.0076   +0.0000   +0.0000   +0.0010    +0.0102   1    45.962
   1071      45-71     12.1728   -0.0066    -0.0067   +0.0000   +0.0000   +0.0000    +0.0004   1    65.924
   1072      45-72     12.7090   +0.0033    +0.0033   +0.0000   +0.0000   +0.0000    +0.0003   1    67.625
   1073      45-73     14.5182   -0.0051    -0.0051   +0.0000   +0.0000   +0.0000    +0.0000   1    71.963
   1074      45-74     14.9753   +0.0026    +0.0026   +0.0000   +0.0000   +0.0000    +0.0000   1    72.772
   1075      45-75     16.8074   -0.0042    -0.0042   +0.0000   +0.0000   +0.0000    +0.0000   1    75.149
   1076      45-76     17.3347   +0.0022    +0.0022   +0.0000   +0.0000   +0.0000    +0.0000   1    75.631
   1077      45-77     20.0039   -0.0035    -0.0035   +0.0000   +0.0000   +0.0000    +0.0000   1    77.185
   1078      45-78     20.1406   +0.0018    +0.0018   +0.0000   +0.0000   +0.0000    +0.0000   1    77.236
   1079      46-59      3.9912   +0.0299    +0.0274   -0.0042   +0.0000   +0.0067    +0.0716   1    18.512
   1080      46-60      6.3501   -0.0179    -0.0176   -0.0024   +0.0000   +0.0021    +0.0279   1    33.844
   1081      46-61      6.6889   +0.0104    +0.0084   -0.0002   +0.0000   +0.0022    +0.0235   1    36.161
   1082      46-62      7.3955   +0.0050    +0.0058   -0.0015   +0.0000   +0.0008    +0.0160   1    40.975
   1083      46-63      7.4776   -0.0184    -0.0201   -0.0009   +0.0000   +0.0026    +0.0153   1    41.525
   1084      46-64      8.3391   -0.0143    -0.0159   +0.0000   +0.0000   +0.0015    +0.0090   1    47.144
   1085      46-65      7.9102   -0.0105    -0.0108   -0.0006   +0.0000   +0.0009    +0.0118   1    44.388
   1086      46-66      8.7614   +0.0053    +0.0046   +0.0000   +0.0000   +0.0006    +0.0068   1    49.757
   1087      46-67     10.1805   -0.0063    -0.0064   +0.0000   +0.0000   +0.0002    +0.0024   1    57.621
   1088      46-68     10.9889   +0.0031    +0.0030   +0.0000   +0.0000   +0.0001    +0.0013   1    61.385
   1089      46-69      8.5906   -0.0085    -0.0090   +0.0000   +0.0000   +0.0006    +0.0077   1    48.711
   1090      46-70      9.0169   +0.0049    +0.0044   +0.0000   +0.0000   +0.0005    +0.0057   1    51.280
   1091      46-71     13.3827   -0.0041    -0.0041   +0.0000   +0.0000   +0.0000    +0.0001   1    69.477
   1092      46-72     13.8947   +0.0021    +0.0021   +0.0000   +0.0000   +0.0000    +0.0001   1    70.688
   1093      46-73     15.6485   -0.0033    -0.0033   +0.0000   +0.0000   +0.0000    +0.0000   1    73.791
   1094      46-74     16.0689   +0.0017    +0.0017   +0.0000   +0.0000   +0.0000    +0.0000   1    74.337
   1095      46-75     17.8911   -0.0028    -0.0028   +0.0000   +0.0000   +0.0000    +0.0000   1    76.065
   1096      46-76     18.3904   +0.0014    +0.0014   +0.0000   +0.0000   +0.0000    +0.0000   1    76.398
   1097      46-77     20.8767   -0.0023    -0.0023   +0.0000   +0.0000   +0.0000    +0.0000   1    77.474
   1098      46-78     21.0475   +0.0012    +0.0012   +0.0000   +0.0000   +0.0000    +0.0000   1    77.522
   1099      47-60      6.5100   -0.0199    -0.0200   -0.0020   +0.0000   +0.0021    +0.0258   1    34.944
   1100      47-61      6.6401   +0.0123    +0.0102   -0.0002   +0.0000   +0.0023    +0.0242   1    35.824
   1101      47-62      7.5465   +0.0062    +0.0066   -0.0013   +0.0000   +0.0009    +0.0147   1    41.984
   1102      47-63      7.5309   -0.0219    -0.0237   -0.0008   +0.0000   +0.0026    +0.0148   1    41.873
   1103      47-64      8.4015   -0.0172    -0.0187   +0.0000   +0.0000   +0.0015    +0.0087   1    47.532
   1104      47-65      8.5082   -0.0104    -0.0111   +0.0000   +0.0000   +0.0007    +0.0081   1    48.202
   1105      47-66      9.2738   +0.0054    +0.0049   +0.0000   +0.0000   +0.0005    +0.0048   1    52.774
   1106      47-67     11.2743   -0.0063    -0.0064   +0.0000   +0.0000   +0.0001    +0.0010   1    62.581
   1107      47-68     12.0806   +0.0031    +0.0031   +0.0000   +0.0000   +0.0000    +0.0005   1    65.613
   1108      47-69      9.9865   -0.0078    -0.0080   +0.0000   +0.0000   +0.0002    +0.0028   1    56.640
   1109      47-70     10.4304   +0.0041    +0.0039   +0.0000   +0.0000   +0.0002    +0.0020   1    58.843
   1110      47-71     14.6875   -0.0043    -0.0043   +0.0000   +0.0000   +0.0000    +0.0000   1    72.275
   1111      47-72     15.1937   +0.0022    +0.0022   +0.0000   +0.0000   +0.0000    +0.0000   1    73.124
   1112      47-73     17.0281   -0.0035    -0.0035   +0.0000   +0.0000   +0.0000    +0.0000   1    75.360
   1113      47-74     17.4598   +0.0018    +0.0018   +0.0000   +0.0000   +0.0000    +0.0000   1    75.736
   1114      47-75     19.3055   -0.0031    -0.0031   +0.0000   +0.0000   +0.0000    +0.0000   1    76.891
   1115      47-76     19.8183   +0.0016    +0.0016   +0.0000   +0.0000   +0.0000    +0.0000   1    77.113
   1116      47-77     22.2319   -0.0026    -0.0026   +0.0000   +0.0000   +0.0000    +0.0000   1    77.794
   1117      47-78     22.3702   +0.0014    +0.0014   +0.0000   +0.0000   +0.0000    +0.0000   1    77.820
   1118      48-53      4.2504   +0.0238    +0.0206   -0.0030   +0.0000   +0.0062    +0.0659   1    20.074
   1119      48-60      6.8586   -0.0128    -0.0129   -0.0015   +0.0000   +0.0015    +0.0215   1    37.329
   1120      48-61      6.9773   +0.0084    +0.0066   -0.0001   +0.0000   +0.0019    +0.0202   1    38.131
   1121      48-62      8.3908   +0.0041    +0.0038   +0.0000   +0.0000   +0.0003    +0.0088   1    47.462
   1122      48-63      8.5243   -0.0118    -0.0132   +0.0000   +0.0000   +0.0013    +0.0080   1    48.305
   1123      48-64      9.0930   -0.0106    -0.0115   +0.0000   +0.0000   +0.0009    +0.0054   1    51.725
   1124      48-65      9.0731   -0.0066    -0.0070   +0.0000   +0.0000   +0.0004    +0.0055   1    51.614
   1125      48-66      9.8117   +0.0035    +0.0032   +0.0000   +0.0000   +0.0003    +0.0032   1    55.726
   1126      48-67     11.7825   -0.0043    -0.0043   +0.0000   +0.0000   +0.0000    +0.0006   1    64.551
   1127      48-68     12.6425   +0.0021    +0.0021   +0.0000   +0.0000   +0.0000    +0.0003   1    67.425
   1128      48-69     10.5665   -0.0051    -0.0052   +0.0000   +0.0000   +0.0001    +0.0018   1    59.483
   1129      48-70     11.1177   +0.0027    +0.0025   +0.0000   +0.0000   +0.0001    +0.0011   1    61.933
   1130      48-71     14.9938   -0.0030    -0.0030   +0.0000   +0.0000   +0.0000    +0.0000   1    72.803
   1131      48-72     15.5665   +0.0015    +0.0015   +0.0000   +0.0000   +0.0000    +0.0000   1    73.678
   1132      48-73     17.3263   -0.0025    -0.0025   +0.0000   +0.0000   +0.0000    +0.0000   1    75.625
   1133      48-74     17.8297   +0.0013    +0.0013   +0.0000   +0.0000   +0.0000    +0.0000   1    76.021
   1134      48-75     19.5382   -0.0022    -0.0022   +0.0000   +0.0000   +0.0000    +0.0000   1    76.996
   1135      48-76     20.1116   +0.0011    +0.0011   +0.0000   +0.0000   +0.0000    +0.0000   1    77.225
   1136      48-77     22.0949   -0.0019    -0.0019   +0.0000   +0.0000   +0.0000    +0.0000   1    77.767
   1137      48-78     22.1696   +0.0010    +0.0010   +0.0000   +0.0000   +0.0000    +0.0000   1    77.782
   1138      49-53      4.9121   +0.0161    +0.0124   -0.0012   +0.0000   +0.0049    +0.0521   1    24.214
   1139      49-55      3.8884   +0.0316    +0.0278   -0.0049   +0.0000   +0.0087    +0.0738   1    17.909
   1140      49-56      4.0729   +0.0294    +0.0250   -0.0038   +0.0000   +0.0082    +0.0698   1    18.993
   1141      49-57      2.9288   +0.0541    +0.0520   -0.0091   +0.0000   +0.0112    +0.0950   1    12.691
   1142      49-60      6.0966   -0.0152    -0.0142   -0.0031   +0.0000   +0.0020    +0.0315   1    32.109
   1143      49-61      6.3334   +0.0093    +0.0069   -0.0003   +0.0000   +0.0027    +0.0281   1    33.726
   1144      49-62      8.0995   +0.0038    +0.0035   +0.0000   +0.0000   +0.0003    +0.0105   1    45.616
   1145      49-63      8.4607   -0.0100    -0.0113   +0.0000   +0.0000   +0.0013    +0.0084   1    47.904
   1146      49-64      8.6885   -0.0095    -0.0107   +0.0000   +0.0000   +0.0011    +0.0072   1    49.311
   1147      49-65      8.2705   -0.0066    -0.0072   +0.0000   +0.0000   +0.0006    +0.0095   1    46.703
   1148      49-66      9.0061   +0.0038    +0.0032   +0.0000   +0.0000   +0.0005    +0.0058   1    51.218
   1149      49-67     10.7968   -0.0041    -0.0042   +0.0000   +0.0000   +0.0001    +0.0015   1    60.540
   1150      49-68     11.6922   +0.0020    +0.0020   +0.0000   +0.0000   +0.0001    +0.0007   1    64.215
   1151      49-69      9.7514   -0.0049    -0.0051   +0.0000   +0.0000   +0.0002    +0.0034   1    55.404
   1152      49-70     10.3973   +0.0026    +0.0024   +0.0000   +0.0000   +0.0002    +0.0020   1    58.685
   1153      49-71     13.8848   -0.0028    -0.0028   +0.0000   +0.0000   +0.0000    +0.0001   1    70.668
   1154      49-72     14.4889   +0.0014    +0.0014   +0.0000   +0.0000   +0.0000    +0.0000   1    71.908
   1155      49-73     16.2491   -0.0023    -0.0023   +0.0000   +0.0000   +0.0000    +0.0000   1    74.552
   1156      49-74     16.7936   +0.0012    +0.0012   +0.0000   +0.0000   +0.0000    +0.0000   1    75.136
   1157      49-75     18.4642   -0.0020    -0.0020   +0.0000   +0.0000   +0.0000    +0.0000   1    76.443
   1158      49-76     19.0694   +0.0010    +0.0010   +0.0000   +0.0000   +0.0000    +0.0000   1    76.776
   1159      49-77     21.1045   -0.0017    -0.0017   +0.0000   +0.0000   +0.0000    +0.0000   1    77.538
   1160      49-78     21.1419   +0.0009    +0.0009   +0.0000   +0.0000   +0.0000    +0.0000   1    77.548
   1161      50-53      4.2877   -0.0380    -0.0396   +0.0000   -0.0016   +0.0031    +0.0651   1    20.296
   1162      50-55      3.9335   -0.0621    -0.0628   +0.0000   -0.0038   +0.0044    +0.0728   1    18.188
   1163      50-56      4.6266   -0.0406    -0.0434   +0.0000   -0.0007   +0.0035    +0.0580   1    22.379
   1164      50-57      3.5365   -0.0858    -0.0798   +0.0000   -0.0110   +0.0049    +0.0816   1    15.925
   1165      50-59      3.8046   -0.0535    -0.0519   +0.0000   -0.0053   +0.0037    +0.0756   1    17.440
   1166      50-60      5.8411   +0.0360    +0.0364   -0.0023   +0.0000   +0.0019    +0.0355   1    30.363
   1167      50-61      6.2799   -0.0151    -0.0164   +0.0000   -0.0000   +0.0014    +0.0289   1    33.370
   1168      50-62      7.8087   -0.0087    -0.0087   -0.0007   +0.0000   +0.0007    +0.0126   1    43.724
   1169      50-63      8.2385   +0.0287    +0.0277   +0.0000   +0.0000   +0.0010    +0.0096   1    46.499
   1170      50-64      8.4902   +0.0268    +0.0260   +0.0000   +0.0000   +0.0008    +0.0082   1    48.088
   1171      50-65      7.5922   +0.0204    +0.0201   -0.0005   +0.0000   +0.0008    +0.0143   1    42.287
   1172      50-66      8.4118   -0.0082    -0.0086   +0.0000   +0.0000   +0.0004    +0.0086   1    47.602
   1173      50-67      9.6710   +0.0123    +0.0121   +0.0000   +0.0000   +0.0002    +0.0036   1    54.972
   1174      50-68     10.5727   -0.0054    -0.0055   +0.0000   +0.0000   +0.0001    +0.0018   1    59.518
   1175      50-69      8.3685   +0.0167    +0.0163   +0.0000   +0.0000   +0.0005    +0.0089   1    47.321
   1176      50-70      9.0127   -0.0072    -0.0074   +0.0000   +0.0000   +0.0003    +0.0058   1    51.259
   1177      50-71     12.5941   +0.0077    +0.0076   +0.0000   +0.0000   +0.0000    +0.0003   1    67.278
   1178      50-72     13.2034   -0.0038    -0.0038   +0.0000   +0.0000   +0.0000    +0.0002   1    69.013
   1179      50-73     14.9087   +0.0060    +0.0060   +0.0000   +0.0000   +0.0000    +0.0000   1    72.660
   1180      50-74     15.4416   -0.0030    -0.0030   +0.0000   +0.0000   +0.0000    +0.0000   1    73.499
   1181      50-75     17.1104   +0.0050    +0.0050   +0.0000   +0.0000   +0.0000    +0.0000   1    75.436
   1182      50-76     17.7014   -0.0026    -0.0026   +0.0000   +0.0000   +0.0000    +0.0000   1    75.925
   1183      50-77     19.8699   +0.0042    +0.0042   +0.0000   +0.0000   +0.0000    +0.0000   1    77.134
   1184      50-78     19.9425   -0.0022    -0.0022   +0.0000   +0.0000   +0.0000    +0.0000   1    77.162
   1185      51-53      5.8313   +0.0053    +0.0023   -0.0004   +0.0000   +0.0034    +0.0356   1    30.309
   1186      51-55      3.9595   +0.0115    +0.0074   -0.0044   +0.0000   +0.0085    +0.0723   1    18.327
   1187      51-56      4.1661   +0.0113    +0.0066   -0.0033   +0.0000   +0.0080    +0.0677   1    19.559
   1188      51-57      2.6344   +0.0216    +0.0181   -0.0084   +0.0000   +0.0119    +0.1012   1    11.246
   1189      51-59      4.0560   +0.0081    +0.0054   -0.0039   +0.0000   +0.0066    +0.0701   1    18.902
   1190      51-60      5.0683   -0.0131    -0.0060   -0.0092   +0.0000   +0.0022    +0.0491   1    25.228
   1191      51-61      5.1801   +0.0066    +0.0031   -0.0009   +0.0000   +0.0044    +0.0470   1    25.946
   1192      51-62      7.2830   -0.0007    +0.0012   -0.0017   +0.0000   -0.0002    +0.0171   1    40.214
   1193      51-63      7.7377   -0.0027    -0.0038   -0.0007   +0.0000   +0.0018    +0.0131   1    43.247
   1194      51-64      7.6956   -0.0027    -0.0038   -0.0007   +0.0000   +0.0019    +0.0135   1    42.979
   1195      51-65      7.5321   -0.0026    -0.0024   -0.0008   +0.0000   +0.0007    +0.0148   1    41.887
   1196      51-66      8.1598   +0.0021    +0.0011   +0.0000   +0.0000   +0.0010    +0.0101   1    45.999
   1197      51-67     10.4920   -0.0012    -0.0012   +0.0000   +0.0000   +0.0001    +0.0019   1    59.135
   1198      51-68     11.3683   +0.0007    +0.0006   +0.0000   +0.0000   +0.0001    +0.0009   1    62.961
   1199      51-69      9.9894   -0.0012    -0.0014   +0.0000   +0.0000   +0.0001    +0.0028   1    56.656
   1200      51-70     10.6603   +0.0008    +0.0006   +0.0000   +0.0000   +0.0002    +0.0016   1    59.919
   1201      51-71     13.8939   -0.0008    -0.0008   +0.0000   +0.0000   +0.0000    +0.0001   1    70.688
   1202      51-72     14.4555   +0.0004    +0.0004   +0.0000   +0.0000   +0.0000    +0.0000   1    71.844
   1203      51-73     16.3976   -0.0006    -0.0006   +0.0000   +0.0000   +0.0000    +0.0000   1    74.720
   1204      51-74     16.9325   +0.0003    +0.0003   +0.0000   +0.0000   +0.0000    +0.0000   1    75.271
   1205      51-75     18.7266   -0.0005    -0.0005   +0.0000   +0.0000   +0.0000    +0.0000   1    76.595
   1206      51-76     19.3248   +0.0003    +0.0003   +0.0000   +0.0000   +0.0000    +0.0000   1    76.900
   1207      51-77     21.7924   -0.0005    -0.0005   +0.0000   +0.0000   +0.0000    +0.0000   1    77.705
   1208      51-78     21.8051   +0.0002    +0.0002   +0.0000   +0.0000   +0.0000    +0.0000   1    77.707
   1209      52-55      2.4186   -0.5465    -0.2009   +0.0000   -0.3520   +0.0064    +0.1055   1    10.221
   1210      52-56      3.5085   -0.0970    -0.0899   +0.0000   -0.0121   +0.0050    +0.0823   1    15.753
   1211      52-57      3.6739   -0.0839    -0.0811   +0.0000   -0.0076   +0.0047    +0.0786   1    16.677
   1212      52-59      5.2338   -0.0256    -0.0276   +0.0000   -0.0002   +0.0022    +0.0460   1    26.301
   1213      52-60      6.4596   +0.0323    +0.0319   -0.0012   +0.0000   +0.0016    +0.0264   1    34.597
   1214      52-61      6.7985   -0.0141    -0.0152   +0.0000   -0.0000   +0.0011    +0.0222   1    36.922
   1215      52-62      6.9253   -0.0126    -0.0126   -0.0014   +0.0000   +0.0014    +0.0208   1    37.778
   1216      52-63      6.8477   +0.0475    +0.0460   -0.0009   +0.0000   +0.0024    +0.0217   1    37.251
   1217      52-64      8.0032   +0.0338    +0.0326   +0.0000   +0.0000   +0.0012    +0.0112   1    44.989
   1218      52-65      7.6840   +0.0221    +0.0217   -0.0004   +0.0000   +0.0008    +0.0136   1    42.898
   1219      52-66      8.5389   -0.0088    -0.0092   +0.0000   +0.0000   +0.0004    +0.0079   1    48.396
   1220      52-67      9.9192   +0.0129    +0.0128   +0.0000   +0.0000   +0.0002    +0.0030   1    56.291
   1221      52-68     10.6525   -0.0059    -0.0060   +0.0000   +0.0000   +0.0001    +0.0017   1    59.886
   1222      52-69      8.2706   +0.0190    +0.0184   +0.0000   +0.0000   +0.0006    +0.0095   1    46.703
   1223      52-70      8.5576   -0.0088    -0.0092   +0.0000   +0.0000   +0.0004    +0.0078   1    48.509
   1224      52-71     13.2744   +0.0078    +0.0078   +0.0000   +0.0000   +0.0000    +0.0001   1    69.198
   1225      52-72     13.7100   -0.0039    -0.0039   +0.0000   +0.0000   +0.0000    +0.0001   1    70.269
   1226      52-73     15.5204   +0.0063    +0.0063   +0.0000   +0.0000   +0.0000    +0.0000   1    73.612
   1227      52-74     15.8624   -0.0032    -0.0032   +0.0000   +0.0000   +0.0000    +0.0000   1    74.077
   1228      52-75     17.8097   +0.0053    +0.0053   +0.0000   +0.0000   +0.0000    +0.0000   1    76.006
   1229      52-76     18.2433   -0.0027    -0.0027   +0.0000   +0.0000   +0.0000    +0.0000   1    76.305
   1230      52-77     21.1416   +0.0044    +0.0044   +0.0000   +0.0000   +0.0000    +0.0000   1    77.548
   1231      52-78     21.3723   -0.0023    -0.0023   +0.0000   +0.0000   +0.0000    +0.0000   1    77.607
   1232      53-54      3.5809   -0.0118    -0.0119   -0.0050   +0.0000   +0.0051    +0.0806   1    16.169
   1233      53-55      3.2039   +0.0588    +0.0594   -0.0006   +0.0000   +0.0000    +0.0890   1    14.116
   1234      53-56      4.0237   +0.0355    +0.0357   -0.0001   +0.0000   +0.0000    +0.0708   1    18.719
   1235      53-57      4.4420   +0.0284    +0.0285   -0.0001   +0.0000   +0.0000    +0.0618   1    21.240
   1236      53-58      4.4866   -0.0378    -0.0397   +0.0000   -0.0010   +0.0029    +0.0608   1    21.522
   1237      53-59      5.3827   +0.0140    +0.0140   -0.0000   +0.0000   +0.0000    +0.0432   1    27.295
   1238      53-60      7.4055   -0.0120    -0.0127   +0.0000   -0.0000   +0.0008    +0.0160   1    41.032
   1239      53-61      7.7479   +0.0061    +0.0061   -0.0000   +0.0000   +0.0000    +0.0131   1    43.313
   1240      53-62      7.7464   +0.0065    +0.0053   -0.0001   +0.0000   +0.0012    +0.0131   1    43.313
   1241      53-63      7.5928   -0.0191    -0.0198   +0.0000   -0.0000   +0.0007    +0.0143   1    42.287
   1242      53-64      8.8607   -0.0139    -0.0142   +0.0000   +0.0000   +0.0003    +0.0064   1    50.356
   1243      53-65      8.5153   -0.0090    -0.0094   +0.0000   +0.0000   +0.0004    +0.0081   1    48.248
   1244      53-66      9.3819   +0.0041    +0.0041   +0.0000   +0.0000   +0.0000    +0.0044   1    53.381
   1245      53-67     10.5124   -0.0061    -0.0062   +0.0000   +0.0000   +0.0001    +0.0019   1    59.233
   1246      53-68     11.2278   +0.0029    +0.0029   +0.0000   +0.0000   +0.0000    +0.0010   1    62.393
   1247      53-69      8.5922   -0.0088    -0.0092   +0.0000   +0.0000   +0.0004    +0.0077   1    48.723
   1248      53-70      8.8204   +0.0047    +0.0047   +0.0000   +0.0000   +0.0000    +0.0066   1    50.111
   1249      53-71     13.6678   -0.0040    -0.0040   +0.0000   +0.0000   +0.0000    +0.0001   1    70.170
   1250      53-72     14.1084   +0.0021    +0.0021   +0.0000   +0.0000   +0.0000    +0.0001   1    71.150
   1251      53-73     15.8039   -0.0033    -0.0033   +0.0000   +0.0000   +0.0000    +0.0000   1    74.001
   1252      53-74     16.1335   +0.0017    +0.0017   +0.0000   +0.0000   +0.0000    +0.0000   1    74.415
   1253      53-75     18.0131   -0.0028    -0.0028   +0.0000   +0.0000   +0.0000    +0.0000   1    76.151
   1254      53-76     18.4352   +0.0015    +0.0015   +0.0000   +0.0000   +0.0000    +0.0000   1    76.425
   1255      53-77     21.1143   -0.0024    -0.0024   +0.0000   +0.0000   +0.0000    +0.0000   1    77.541
   1256      53-78     21.3701   +0.0012    +0.0012   +0.0000   +0.0000   +0.0000    +0.0000   1    77.606
   1257      54-59      4.2999   -0.0055    -0.0078   -0.0018   +0.0000   +0.0041    +0.0648   1    20.363
   1258      54-60      5.6184   +0.0055    +0.0079   -0.0034   +0.0000   +0.0010    +0.0391   1    28.871
   1259      54-61      5.5873   -0.0021    -0.0043   -0.0004   +0.0000   +0.0025    +0.0397   1    28.646
   1260      54-62      6.3723   -0.0058    -0.0027   -0.0027   +0.0000   -0.0004    +0.0276   1    33.996
   1261      54-63      6.2731   +0.0110    +0.0101   -0.0017   +0.0000   +0.0026    +0.0290   1    33.319
   1262      54-64      7.1916   +0.0083    +0.0074   -0.0007   +0.0000   +0.0016    +0.0180   1    39.601
   1263      54-65      7.7788   +0.0037    +0.0038   -0.0005   +0.0000   +0.0003    +0.0128   1    43.526
   1264      54-66      8.4570   -0.0012    -0.0017   +0.0000   +0.0000   +0.0005    +0.0084   1    47.881
   1265      54-67     11.0343   +0.0019    +0.0019   +0.0000   +0.0000   +0.0000    +0.0012   1    61.580
   1266      54-68     11.7925   -0.0009    -0.0009   +0.0000   +0.0000   +0.0000    +0.0006   1    64.590
   1267      54-69     10.1879   +0.0022    +0.0022   +0.0000   +0.0000   +0.0001    +0.0024   1    57.660
   1268      54-70     10.5999   -0.0010    -0.0011   +0.0000   +0.0000   +0.0001    +0.0017   1    59.641
   1269      54-71     14.8456   +0.0012    +0.0012   +0.0000   +0.0000   +0.0000    +0.0000   1    72.552
   1270      54-72     15.2825   -0.0006    -0.0006   +0.0000   +0.0000   +0.0000    +0.0000   1    73.260
   1271      54-73     17.3131   +0.0010    +0.0010   +0.0000   +0.0000   +0.0000    +0.0000   1    75.613
   1272      54-74     17.7025   -0.0005    -0.0005   +0.0000   +0.0000   +0.0000    +0.0000   1    75.926
   1273      54-75     19.7206   +0.0008    +0.0008   +0.0000   +0.0000   +0.0000    +0.0000   1    77.073
   1274      54-76     20.2002   -0.0004    -0.0004   +0.0000   +0.0000   +0.0000    +0.0000   1    77.257
   1275      54-77     23.1461   +0.0007    +0.0007   +0.0000   +0.0000   +0.0000    +0.0000   1    77.865
   1276      54-78     23.2891   -0.0004    -0.0004   +0.0000   +0.0000   +0.0000    +0.0000   1    77.865
   1277      55-58      4.4779   -0.0494    -0.0521   +0.0000   -0.0010   +0.0037    +0.0610   1    21.457
   1278      55-59      5.1572   +0.0202    +0.0202   -0.0000   +0.0000   +0.0000    +0.0474   1    25.807
   1279      55-60      5.1571   -0.0353    -0.0379   +0.0000   -0.0002   +0.0029    +0.0474   1    25.807
   1280      55-61      5.1906   +0.0199    +0.0199   -0.0000   +0.0000   +0.0000    +0.0468   1    26.025
   1281      55-62      5.6121   +0.0185    +0.0144   -0.0006   +0.0000   +0.0046    +0.0393   1    28.815
   1282      55-63      5.4775   -0.0518    -0.0542   +0.0000   -0.0001   +0.0025    +0.0416   1    27.927
   1283      55-64      6.5367   -0.0346    -0.0361   +0.0000   -0.0000   +0.0015    +0.0254   1    35.124
   1284      55-65      7.0691   -0.0172    -0.0184   +0.0000   -0.0000   +0.0012    +0.0192   1    38.768
   1285      55-66      7.7675   +0.0080    +0.0080   -0.0000   +0.0000   +0.0000    +0.0129   1    43.446
   1286      55-67     10.2997   -0.0083    -0.0084   +0.0000   +0.0000   +0.0001    +0.0022   1    58.209
   1287      55-68     11.0218   +0.0040    +0.0040   +0.0000   +0.0000   +0.0000    +0.0012   1    61.525
   1288      55-69      9.4830   -0.0096    -0.0098   +0.0000   +0.0000   +0.0002    +0.0041   1    53.945
   1289      55-70      9.8396   +0.0049    +0.0049   +0.0000   +0.0000   +0.0000    +0.0032   1    55.877
   1290      55-71     14.2159   -0.0050    -0.0050   +0.0000   +0.0000   +0.0000    +0.0001   1    71.371
   1291      55-72     14.6093   +0.0025    +0.0025   +0.0000   +0.0000   +0.0000    +0.0000   1    72.132
   1292      55-73     16.6915   -0.0040    -0.0040   +0.0000   +0.0000   +0.0000    +0.0000   1    75.033
   1293      55-74     17.0394   +0.0021    +0.0021   +0.0000   +0.0000   +0.0000    +0.0000   1    75.371
   1294      55-75     19.1418   -0.0034    -0.0034   +0.0000   +0.0000   +0.0000    +0.0000   1    76.813
   1295      55-76     19.5858   +0.0018    +0.0018   +0.0000   +0.0000   +0.0000    +0.0000   1    77.017
   1296      55-77     22.8575   -0.0029    -0.0029   +0.0000   +0.0000   +0.0000    +0.0000   1    77.865
   1297      55-78     23.0321   +0.0015    +0.0015   +0.0000   +0.0000   +0.0000    +0.0000   1    77.865
   1298      56-58      4.0775   -0.0629    -0.0644   +0.0000   -0.0026   +0.0042    +0.0696   1    19.039
   1299      56-59      4.5090   +0.0275    +0.0275   -0.0001   +0.0000   +0.0000    +0.0604   1    21.651
   1300      56-60      6.3339   -0.0219    -0.0236   +0.0000   -0.0000   +0.0017    +0.0281   1    33.726
   1301      56-61      6.1812   +0.0133    +0.0133   -0.0000   +0.0000   +0.0000    +0.0303   1    32.683
   1302      56-62      6.7939   +0.0117    +0.0093   -0.0002   +0.0000   +0.0026    +0.0223   1    36.891
   1303      56-63      6.5292   -0.0347    -0.0362   +0.0000   -0.0000   +0.0015    +0.0255   1    35.075
   1304      56-64      7.6029   -0.0249    -0.0257   +0.0000   -0.0000   +0.0009    +0.0142   1    42.355
   1305      56-65      8.5377   -0.0117    -0.0122   +0.0000   +0.0000   +0.0005    +0.0079   1    48.384
   1306      56-66      9.1676   +0.0056    +0.0056   +0.0000   +0.0000   +0.0000    +0.0052   1    52.162
   1307      56-67     11.9341   -0.0064    -0.0065   +0.0000   +0.0000   +0.0000    +0.0005   1    65.099
   1308      56-68     12.6657   +0.0031    +0.0031   +0.0000   +0.0000   +0.0000    +0.0003   1    67.496
   1309      56-69     11.1117   -0.0072    -0.0073   +0.0000   +0.0000   +0.0001    +0.0011   1    61.910
   1310      56-70     11.4837   +0.0037    +0.0037   +0.0000   +0.0000   +0.0000    +0.0008   1    63.421
   1311      56-71     15.8210   -0.0043    -0.0043   +0.0000   +0.0000   +0.0000    +0.0000   1    74.023
   1312      56-72     16.2393   +0.0022    +0.0022   +0.0000   +0.0000   +0.0000    +0.0000   1    74.540
   1313      56-73     18.2872   -0.0036    -0.0036   +0.0000   +0.0000   +0.0000    +0.0000   1    76.333
   1314      56-74     18.6595   +0.0019    +0.0019   +0.0000   +0.0000   +0.0000    +0.0000   1    76.557
   1315      56-75     20.7002   -0.0032    -0.0032   +0.0000   +0.0000   +0.0000    +0.0000   1    77.422
   1316      56-76     21.1672   +0.0016    +0.0016   +0.0000   +0.0000   +0.0000    +0.0000   1    77.555
   1317      56-77     24.0976   -0.0029    -0.0029   +0.0000   +0.0000   +0.0000    +0.0000   1    77.865
   1318      56-78     24.2478   +0.0015    +0.0015   +0.0000   +0.0000   +0.0000    +0.0000   1    77.865
   1319      57-58      3.8987   -0.0711    -0.0714   +0.0000   -0.0042   +0.0044    +0.0736   1    17.979
   1320      57-59      4.3643   +0.0296    +0.0297   -0.0001   +0.0000   +0.0000    +0.0634   1    20.759
   1321      57-60      5.0414   -0.0372    -0.0399   +0.0000   -0.0003   +0.0030    +0.0496   1    25.047
   1322      57-61      4.9505   +0.0222    +0.0222   -0.0000   +0.0000   +0.0000    +0.0514   1    24.459
   1323      57-62      6.1521   +0.0150    +0.0116   -0.0003   +0.0000   +0.0036    +0.0307   1    32.493
   1324      57-63      6.1968   -0.0390    -0.0408   +0.0000   -0.0000   +0.0018    +0.0301   1    32.787
   1325      57-64      6.8247   -0.0314    -0.0327   +0.0000   -0.0000   +0.0013    +0.0219   1    37.095
   1326      57-65      7.4462   -0.0155    -0.0164   +0.0000   -0.0000   +0.0009    +0.0156   1    41.314
   1327      57-66      8.0741   +0.0073    +0.0073   +0.0000   +0.0000   +0.0000    +0.0107   1    45.454
   1328      57-67     10.8681   -0.0075    -0.0076   +0.0000   +0.0000   +0.0001    +0.0014   1    60.854
   1329      57-68     11.6458   +0.0036    +0.0036   +0.0000   +0.0000   +0.0000    +0.0007   1    64.044
   1330      57-69     10.2842   -0.0083    -0.0084   +0.0000   +0.0000   +0.0001    +0.0022   1    58.135
   1331      57-70     10.7630   +0.0041    +0.0041   +0.0000   +0.0000   +0.0000    +0.0015   1    60.384
   1332      57-71     14.7334   -0.0047    -0.0047   +0.0000   +0.0000   +0.0000    +0.0000   1    72.357
   1333      57-72     15.1819   +0.0024    +0.0024   +0.0000   +0.0000   +0.0000    +0.0000   1    73.105
   1334      57-73     17.2644   -0.0039    -0.0039   +0.0000   +0.0000   +0.0000    +0.0000   1    75.571
   1335      57-74     17.6816   +0.0020    +0.0020   +0.0000   +0.0000   +0.0000    +0.0000   1    75.910
   1336      57-75     19.7000   -0.0033    -0.0033   +0.0000   +0.0000   +0.0000    +0.0000   1    77.065
   1337      57-76     20.2032   +0.0017    +0.0017   +0.0000   +0.0000   +0.0000    +0.0000   1    77.258
   1338      57-77     23.1859   -0.0029    -0.0029   +0.0000   +0.0000   +0.0000    +0.0000   1    77.865
   1339      57-78     23.2925   +0.0015    +0.0015   +0.0000   +0.0000   +0.0000    +0.0000   1    77.865
   1340      58-60      8.1852   +0.0197    +0.0190   +0.0000   +0.0000   +0.0006    +0.0100   1    46.158
   1341      58-61      8.3611   -0.0093    -0.0097   +0.0000   +0.0000   +0.0004    +0.0089   1    47.286
   1342      58-62      9.7135   -0.0060    -0.0062   +0.0000   +0.0000   +0.0002    +0.0035   1    55.206
   1343      58-63      9.8211   +0.0219    +0.0216   +0.0000   +0.0000   +0.0004    +0.0032   1    55.777
   1344      58-64     10.4621   +0.0194    +0.0192   +0.0000   +0.0000   +0.0002    +0.0019   1    58.993
   1345      58-65     10.2623   +0.0122    +0.0121   +0.0000   +0.0000   +0.0001    +0.0023   1    58.030
   1346      58-66     11.0435   -0.0056    -0.0056   +0.0000   +0.0000   +0.0001    +0.0012   1    61.616
   1347      58-67     12.6301   +0.0084    +0.0084   +0.0000   +0.0000   +0.0000    +0.0003   1    67.388
   1348      58-68     13.5059   -0.0041    -0.0041   +0.0000   +0.0000   +0.0000    +0.0001   1    69.784
   1349      58-69     11.0606   +0.0106    +0.0105   +0.0000   +0.0000   +0.0001    +0.0012   1    61.689
   1350      58-70     11.6060   -0.0051    -0.0052   +0.0000   +0.0000   +0.0000    +0.0007   1    63.891
   1351      58-71     15.4981   +0.0063    +0.0063   +0.0000   +0.0000   +0.0000    +0.0000   1    73.580
   1352      58-72     16.1181   -0.0032    -0.0032   +0.0000   +0.0000   +0.0000    +0.0000   1    74.397
   1353      58-73     17.6883   +0.0054    +0.0054   +0.0000   +0.0000   +0.0000    +0.0000   1    75.916
   1354      58-74     18.2178   -0.0028    -0.0028   +0.0000   +0.0000   +0.0000    +0.0000   1    76.288
   1355      58-75     19.7610   +0.0047    +0.0047   +0.0000   +0.0000   +0.0000    +0.0000   1    77.090
   1356      58-76     20.3559   -0.0024    -0.0024   +0.0000   +0.0000   +0.0000    +0.0000   1    77.311
   1357      58-77     21.7779   +0.0043    +0.0043   +0.0000   +0.0000   +0.0000    +0.0000   1    77.701
   1358      58-78     21.8505   -0.0023    -0.0023   +0.0000   +0.0000   +0.0000    +0.0000   1    77.717
   1359      59-60      8.7643   -0.0085    -0.0089   +0.0000   +0.0000   +0.0003    +0.0068   1    49.768
   1360      59-61      8.8751   +0.0046    +0.0046   +0.0000   +0.0000   +0.0000    +0.0063   1    50.440
   1361      59-62     10.3620   +0.0031    +0.0029   +0.0000   +0.0000   +0.0002    +0.0021   1    58.511
   1362      59-63     10.4631   -0.0102    -0.0103   +0.0000   +0.0000   +0.0001    +0.0019   1    59.000
   1363      59-64     11.0508   -0.0093    -0.0093   +0.0000   +0.0000   +0.0001    +0.0012   1    61.647
   1364      59-65     10.9774   -0.0057    -0.0057   +0.0000   +0.0000   +0.0001    +0.0013   1    61.336
   1365      59-66     11.7259   +0.0027    +0.0027   +0.0000   +0.0000   +0.0000    +0.0007   1    64.340
   1366      59-67     13.4421   -0.0041    -0.0041   +0.0000   +0.0000   +0.0000    +0.0001   1    69.626
   1367      59-68     14.3274   +0.0020    +0.0020   +0.0000   +0.0000   +0.0000    +0.0000   1    71.595
   1368      59-69     11.9470   -0.0049    -0.0050   +0.0000   +0.0000   +0.0000    +0.0005   1    65.145
   1369      59-70     12.5149   +0.0025    +0.0025   +0.0000   +0.0000   +0.0000    +0.0003   1    67.032
   1370      59-71     16.2905   -0.0032    -0.0032   +0.0000   +0.0000   +0.0000    +0.0000   1    74.599
   1371      59-72     16.9270   +0.0016    +0.0016   +0.0000   +0.0000   +0.0000    +0.0000   1    75.265
   1372      59-73     18.4809   -0.0027    -0.0027   +0.0000   +0.0000   +0.0000    +0.0000   1    76.453
   1373      59-74     19.0325   +0.0014    +0.0014   +0.0000   +0.0000   +0.0000    +0.0000   1    76.758
   1374      59-75     20.5274   -0.0024    -0.0024   +0.0000   +0.0000   +0.0000    +0.0000   1    77.368
   1375      59-76     21.1428   +0.0013    +0.0013   +0.0000   +0.0000   +0.0000    +0.0000   1    77.548
   1376      59-77     22.3455   -0.0022    -0.0022   +0.0000   +0.0000   +0.0000    +0.0000   1    77.815
   1377      59-78     22.3889   +0.0012    +0.0012   +0.0000   +0.0000   +0.0000    +0.0000   1    77.823
   1378      60-63      4.0789   +0.1423    +0.1536   -0.0189   +0.0000   +0.0077    +0.0696   1    19.039
   1379      60-64      3.0734   +0.2656    +0.2887   -0.0332   +0.0000   +0.0101    +0.0919   1    13.438
   1380      60-66      3.2659   -0.1020    -0.0819   +0.0000   -0.0243   +0.0042    +0.0876   1    14.449
   1381      60-68      7.7086   -0.0110    -0.0116   +0.0000   -0.0000   +0.0006    +0.0134   1    43.059
   1382      60-70      8.6243   -0.0088    -0.0092   +0.0000   +0.0000   +0.0004    +0.0075   1    48.924
   1383      60-72     11.8179   -0.0050    -0.0051   +0.0000   +0.0000   +0.0000    +0.0006   1    64.682
   1384      60-74     14.6704   -0.0036    -0.0036   +0.0000   +0.0000   +0.0000    +0.0000   1    72.245
   1385      60-76     17.4595   -0.0029    -0.0029   +0.0000   +0.0000   +0.0000    +0.0000   1    75.735
   1386      60-78     22.1030   -0.0022    -0.0022   +0.0000   +0.0000   +0.0000    +0.0000   1    77.769
   1387      61-62      2.8679   +0.0502    +0.0502   -0.0091   +0.0000   +0.0091    +0.0963   1    12.392
   1388      61-63      3.8083   -0.0971    -0.0955   +0.0000   -0.0052   +0.0036    +0.0756   1    17.463
   1389      61-64      2.7267   -0.3292    -0.2000   +0.0000   -0.1340   +0.0048    +0.0993   1    11.671
   1390      61-65      3.5448   -0.0750    -0.0682   +0.0000   -0.0107   +0.0039    +0.0814   1    15.974
   1391      61-66      3.7434   +0.0320    +0.0322   -0.0002   +0.0000   +0.0000    +0.0770   1    17.084
   1392      61-67      7.8859   -0.0105    -0.0110   +0.0000   -0.0000   +0.0006    +0.0120   1    44.233
   1393      61-68      8.5074   +0.0050    +0.0050   +0.0000   +0.0000   +0.0000    +0.0081   1    48.202
   1394      61-69      9.0372   -0.0080    -0.0083   +0.0000   +0.0000   +0.0003    +0.0057   1    51.402
   1395      61-70      9.5262   +0.0040    +0.0040   +0.0000   +0.0000   +0.0000    +0.0040   1    54.182
   1396      61-71     12.4477   -0.0046    -0.0047   +0.0000   +0.0000   +0.0000    +0.0003   1    66.824
   1397      61-72     12.7063   +0.0024    +0.0024   +0.0000   +0.0000   +0.0000    +0.0003   1    67.618
   1398      61-73     15.2472   -0.0035    -0.0035   +0.0000   +0.0000   +0.0000    +0.0000   1    73.207
   1399      61-74     15.5797   +0.0018    +0.0018   +0.0000   +0.0000   +0.0000    +0.0000   1    73.696
   1400      61-75     17.9561   -0.0028    -0.0028   +0.0000   +0.0000   +0.0000    +0.0000   1    76.111
   1401      61-76     18.3858   +0.0015    +0.0015   +0.0000   +0.0000   +0.0000    +0.0000   1    76.395
   1402      61-77     22.9526   -0.0022    -0.0022   +0.0000   +0.0000   +0.0000    +0.0000   1    77.865
   1403      61-78     23.0408   +0.0012    +0.0012   +0.0000   +0.0000   +0.0000    +0.0000   1    77.865
   1404      62-66      3.4541   +0.0331    +0.0335   -0.0082   +0.0000   +0.0079    +0.0835   1    15.456
   1405      62-68      8.0187   +0.0060    +0.0049   +0.0000   +0.0000   +0.0010    +0.0111   1    45.090
   1406      62-70      9.0252   +0.0044    +0.0039   +0.0000   +0.0000   +0.0005    +0.0057   1    51.331
   1407      62-72     12.5918   +0.0021    +0.0021   +0.0000   +0.0000   +0.0000    +0.0003   1    67.271
   1408      62-74     15.4064   +0.0016    +0.0016   +0.0000   +0.0000   +0.0000    +0.0000   1    73.447
   1409      62-76     18.3197   +0.0013    +0.0013   +0.0000   +0.0000   +0.0000    +0.0000   1    76.353
   1410      62-78     23.8276   +0.0010    +0.0010   +0.0000   +0.0000   +0.0000    +0.0000   1    77.865
   1411      63-65      4.5207   +0.1173    +0.1215   -0.0108   +0.0000   +0.0066    +0.0602   1    21.716
   1412      63-66      4.6452   -0.0587    -0.0608   +0.0000   -0.0007   +0.0028    +0.0575   1    22.506
   1413      63-67      8.5905   +0.0293    +0.0284   +0.0000   +0.0000   +0.0008    +0.0077   1    48.711
   1414      63-68      8.9418   -0.0137    -0.0140   +0.0000   +0.0000   +0.0003    +0.0061   1    50.837
   1415      63-69      9.5226   +0.0235    +0.0231   +0.0000   +0.0000   +0.0004    +0.0040   1    54.164
   1416      63-70      9.6496   -0.0118    -0.0120   +0.0000   +0.0000   +0.0002    +0.0036   1    54.858
   1417      63-71     13.4482   +0.0128    +0.0128   +0.0000   +0.0000   +0.0000    +0.0001   1    69.641
   1418      63-72     13.5082   -0.0067    -0.0067   +0.0000   +0.0000   +0.0000    +0.0001   1    69.789
   1419      63-73     16.1272   +0.0100    +0.0100   +0.0000   +0.0000   +0.0000    +0.0000   1    74.407
   1420      63-74     16.2560   -0.0052    -0.0052   +0.0000   +0.0000   +0.0000    +0.0000   1    74.560
   1421      63-75     18.8965   +0.0082    +0.0082   +0.0000   +0.0000   +0.0000    +0.0000   1    76.687
   1422      63-76     19.1618   -0.0043    -0.0043   +0.0000   +0.0000   +0.0000    +0.0000   1    76.822
   1423      63-77     24.4584   +0.0068    +0.0068   +0.0000   +0.0000   +0.0000    +0.0000   1    77.865
   1424      63-78     24.6846   -0.0036    -0.0036   +0.0000   +0.0000   +0.0000    +0.0000   1    77.865
   1425      64-65      3.3888   +0.2091    +0.2330   -0.0332   +0.0000   +0.0093    +0.0849   1    15.107
   1426      64-66      3.1677   -0.1720    -0.1440   +0.0000   -0.0324   +0.0043    +0.0898   1    13.935
   1427      64-67      7.8090   +0.0358    +0.0348   -0.0004   +0.0000   +0.0014    +0.0126   1    43.724
   1428      64-68      8.1620   -0.0164    -0.0169   +0.0000   +0.0000   +0.0005    +0.0101   1    46.012
   1429      64-69      9.4510   +0.0239    +0.0234   +0.0000   +0.0000   +0.0005    +0.0042   1    53.771
   1430      64-70      9.7084   -0.0117    -0.0119   +0.0000   +0.0000   +0.0002    +0.0035   1    55.180
   1431      64-71     12.7330   +0.0139    +0.0139   +0.0000   +0.0000   +0.0000    +0.0003   1    67.698
   1432      64-72     12.7915   -0.0073    -0.0073   +0.0000   +0.0000   +0.0000    +0.0002   1    67.867
   1433      64-73     15.5139   +0.0105    +0.0105   +0.0000   +0.0000   +0.0000    +0.0000   1    73.602
   1434      64-74     15.6866   -0.0055    -0.0055   +0.0000   +0.0000   +0.0000    +0.0000   1    73.844
   1435      64-75     18.3259   +0.0085    +0.0085   +0.0000   +0.0000   +0.0000    +0.0000   1    76.357
   1436      64-76     18.6263   -0.0045    -0.0045   +0.0000   +0.0000   +0.0000    +0.0000   1    76.538
   1437      64-77     24.0980   +0.0068    +0.0068   +0.0000   +0.0000   +0.0000    +0.0000   1    77.865
   1438      64-78     24.2620   -0.0036    -0.0036   +0.0000   +0.0000   +0.0000    +0.0000   1    77.865
   1439      65-68      5.0473   -0.0284    -0.0305   +0.0000   -0.0003   +0.0024    +0.0495   1    25.087
   1440      65-70      6.7876   -0.0144    -0.0154   +0.0000   -0.0000   +0.0011    +0.0224   1    36.844
   1441      65-72      9.5061   -0.0073    -0.0075   +0.0000   +0.0000   +0.0002    +0.0041   1    54.073
   1442      65-74     12.4135   -0.0046    -0.0047   +0.0000   +0.0000   +0.0000    +0.0003   1    66.716
   1443      65-76     15.3219   -0.0034    -0.0034   +0.0000   +0.0000   +0.0000    +0.0000   1    73.321
   1444      65-78     20.9760   -0.0024    -0.0024   +0.0000   +0.0000   +0.0000    +0.0000   1    77.502
   1445      66-67      4.8409   -0.0314    -0.0335   +0.0000   -0.0005   +0.0026    +0.0536   1    23.741
   1446      66-68      5.2179   +0.0150    +0.0151   -0.0000   +0.0000   +0.0000    +0.0463   1    26.203
   1447      66-69      7.1394   -0.0129    -0.0138   +0.0000   -0.0000   +0.0009    +0.0185   1    39.246
   1448      66-70      7.4822   +0.0066    +0.0066   -0.0000   +0.0000   +0.0000    +0.0153   1    41.553
   1449      66-71      9.7125   -0.0071    -0.0072   +0.0000   +0.0000   +0.0002    +0.0035   1    55.198
   1450      66-72      9.7666   +0.0038    +0.0038   +0.0000   +0.0000   +0.0000    +0.0033   1    55.489
   1451      66-73     12.5220   -0.0046    -0.0046   +0.0000   +0.0000   +0.0000    +0.0003   1    67.056
   1452      66-74     12.7189   +0.0024    +0.0024   +0.0000   +0.0000   +0.0000    +0.0003   1    67.654
   1453      66-75     15.3432   -0.0034    -0.0034   +0.0000   +0.0000   +0.0000    +0.0000   1    73.353
   1454      66-76     15.6571   +0.0018    +0.0018   +0.0000   +0.0000   +0.0000    +0.0000   1    73.803
   1455      66-77     21.3990   -0.0023    -0.0023   +0.0000   +0.0000   +0.0000    +0.0000   1    77.614
   1456      66-78     21.5506   +0.0012    +0.0012   +0.0000   +0.0000   +0.0000    +0.0000   1    77.650
   1457      67-70      3.9782   -0.0525    -0.0525   +0.0000   -0.0034   +0.0035    +0.0718   1    18.443
   1458      67-72      4.9864   -0.0292    -0.0313   +0.0000   -0.0003   +0.0024    +0.0507   1    24.683
   1459      67-74      7.8926   -0.0105    -0.0110   +0.0000   -0.0000   +0.0006    +0.0120   1    44.272
   1460      67-76     10.8363   -0.0058    -0.0059   +0.0000   +0.0000   +0.0001    +0.0014   1    60.714
   1461      67-78     17.3207   -0.0029    -0.0029   +0.0000   +0.0000   +0.0000    +0.0000   1    75.620
   1462      68-69      4.2430   -0.0439    -0.0453   +0.0000   -0.0018   +0.0032    +0.0660   1    20.030
   1463      68-70      4.3415   +0.0229    +0.0230   -0.0001   +0.0000   +0.0000    +0.0639   1    20.628
   1464      68-71      4.9082   -0.0305    -0.0327   +0.0000   -0.0004   +0.0025    +0.0522   1    24.173
   1465      68-72      4.7423   +0.0187    +0.0188   -0.0001   +0.0000   +0.0000    +0.0556   1    23.117
   1466      68-73      7.5617   -0.0115    -0.0122   +0.0000   -0.0000   +0.0007    +0.0146   1    42.080
   1467      68-74      7.6253   +0.0064    +0.0064   -0.0000   +0.0000   +0.0000    +0.0140   1    42.505
   1468      68-75     10.4128   -0.0062    -0.0063   +0.0000   +0.0000   +0.0001    +0.0020   1    58.757
   1469      68-76     10.6164   +0.0032    +0.0032   +0.0000   +0.0000   +0.0000    +0.0017   1    59.716
   1470      68-77     17.3276   -0.0029    -0.0029   +0.0000   +0.0000   +0.0000    +0.0000   1    75.625
   1471      68-78     17.5791   +0.0015    +0.0015   +0.0000   +0.0000   +0.0000    +0.0000   1    75.831
   1472      69-72      5.5668   -0.0225    -0.0243   +0.0000   -0.0001   +0.0019    +0.0400   1    28.515
   1473      69-74      7.6277   -0.0112    -0.0119   +0.0000   -0.0000   +0.0007    +0.0140   1    42.519
   1474      69-76     10.1888   -0.0064    -0.0066   +0.0000   +0.0000   +0.0001    +0.0024   1    57.660
   1475      69-78     15.4553   -0.0034    -0.0034   +0.0000   +0.0000   +0.0000    +0.0000   1    73.518
   1476      70-71      5.3680   -0.0246    -0.0265   +0.0000   -0.0002   +0.0021    +0.0435   1    27.198
   1477      70-72      5.6069   +0.0127    +0.0128   -0.0000   +0.0000   +0.0000    +0.0394   1    28.778
   1478      70-73      7.3607   -0.0121    -0.0129   +0.0000   -0.0000   +0.0008    +0.0164   1    40.733
   1479      70-74      7.5114   +0.0066    +0.0066   -0.0000   +0.0000   +0.0000    +0.0150   1    41.748
   1480      70-75      9.8178   -0.0069    -0.0071   +0.0000   +0.0000   +0.0002    +0.0032   1    55.760
   1481      70-76     10.0804   +0.0036    +0.0036   +0.0000   +0.0000   +0.0000    +0.0026   1    57.117
   1482      70-77     15.3285   -0.0034    -0.0034   +0.0000   +0.0000   +0.0000    +0.0000   1    73.330
   1483      70-78     15.7005   +0.0018    +0.0018   +0.0000   +0.0000   +0.0000    +0.0000   1    73.863
   1484      71-74      3.2508   -0.1037    -0.0829   +0.0000   -0.0251   +0.0042    +0.0880   1    14.373
   1485      71-76      6.0054   -0.0189    -0.0205   +0.0000   -0.0001   +0.0016    +0.0329   1    31.493
   1486      71-78     12.9500   -0.0044    -0.0044   +0.0000   +0.0000   +0.0000    +0.0002   1    68.323
   1487      72-73      2.8779   -0.1849    -0.1081   +0.0000   -0.0814   +0.0046    +0.0960   1    12.446
   1488      72-74      3.0096   +0.0514    +0.0523   -0.0009   +0.0000   +0.0000    +0.0933   1    13.093
   1489      72-75      5.7190   -0.0212    -0.0229   +0.0000   -0.0001   +0.0018    +0.0375   1    29.540
   1490      72-76      5.9422   +0.0112    +0.0112   -0.0000   +0.0000   +0.0000    +0.0339   1    31.048
   1491      72-77     13.2500   -0.0042    -0.0042   +0.0000   +0.0000   +0.0000    +0.0002   1    69.137
   1492      72-78     13.5316   +0.0022    +0.0022   +0.0000   +0.0000   +0.0000    +0.0001   1    69.846
   1493      73-76      3.1639   -0.1166    -0.0881   +0.0000   -0.0329   +0.0043    +0.0899   1    13.909
   1494      73-78     11.0486   -0.0056    -0.0057   +0.0000   +0.0000   +0.0001    +0.0012   1    61.641
   1495      74-75      2.9988   -0.1498    -0.0992   +0.0000   -0.0551   +0.0045    +0.0935   1    13.040
   1496      74-76      3.0082   +0.0514    +0.0523   -0.0009   +0.0000   +0.0000    +0.0933   1    13.093
   1497      74-77     11.2193   -0.0055    -0.0055   +0.0000   +0.0000   +0.0000    +0.0010   1    62.353
   1498      74-78     11.6073   +0.0028    +0.0028   +0.0000   +0.0000   +0.0000    +0.0007   1    63.896
   1499      75-78      8.9959   -0.0081    -0.0084   +0.0000   +0.0000   +0.0003    +0.0058   1    51.157
   1500      76-77      9.1330   -0.0079    -0.0081   +0.0000   +0.0000   +0.0003    +0.0053   1    51.964
   1501      76-78      9.5807   +0.0039    +0.0039   +0.0000   +0.0000   +0.0000    +0.0038   1    54.487
                                ________   ________  ________  ________  ________
Total                            -2.2522    -0.8905   -1.2339    -1.3716   +1.2437
                                ________  ________  ________  ________ ________
                                   Total       Elec       vdW        Hb    Desolv


	Per-atom Intramolecular Energy Analysis
	=======================================

Atom Type   Total     Elec       vdW        Hb     Desolv 
____ ___  ________  ________  ________  ________  ________
   1  C    -0.0018   +0.0427   -0.0765   +0.0000   +0.0321
   2  C    -0.0517   -0.0015   -0.0758   +0.0000   +0.0256
   3  C    -0.0297   +0.0001   -0.0440   +0.0000   +0.0143
   4  C    +0.0214   +0.0504   -0.0508   +0.0000   +0.0217
   5  C    -0.0248   -0.0004   -0.0376   +0.0000   +0.0132
   6  C    +0.0263   +0.0286   -0.0151   +0.0000   +0.0129
   7  C    -0.0353   +0.0000   -0.0440   +0.0000   +0.0086
   8  C    +0.0392   +0.0343   -0.0080   +0.0000   +0.0129
   9  C    -0.0095   +0.0000   -0.0177   +0.0000   +0.0082
  10  C    -0.0125   -0.0101   -0.0243   +0.0000   +0.0219
  11  C    -0.0003   +0.0000   -0.0060   +0.0000   +0.0056
  12  C    +0.0300   +0.0240   -0.0160   +0.0000   +0.0220
  13  C    +0.0037   +0.0000   -0.0023   +0.0000   +0.0060
  14  C    +0.0243   +0.0184   -0.0102   +0.0000   +0.0161
  15  OA   -0.0895   -0.0594   -0.0020   -0.0387   +0.0105
  16  C    +0.0035   -0.0004   -0.0003   +0.0000   +0.0043
  17  C    +0.0185   +0.0112   -0.0012   +0.0000   +0.0085
  18  C    +0.0014   -0.0028   -0.0004   +0.0000   +0.0046
  19  C    +0.0199   +0.0136   -0.0011   +0.0000   +0.0073
  20  C    +0.0058   +0.0028   -0.0002   +0.0000   +0.0031
  21  C    +0.0129   +0.0103   -0.0094   +0.0000   +0.0120
  22  C    +0.0075   +0.0033   -0.0003   +0.0000   +0.0045
  23  C    +0.0122   +0.0076   -0.0062   +0.0000   +0.0107
  24  C    +0.0009   -0.0024   -0.0002   +0.0000   +0.0035
  25  C    +0.0318   +0.0270   -0.0061   +0.0000   +0.0109
  26  C    +0.0033   -0.0004   -0.0003   +0.0000   +0.0039
  27  C    +0.0111   +0.0066   -0.0009   +0.0000   +0.0054
  28  C    +0.0029   -0.0004   -0.0007   +0.0000   +0.0040
  29  C    +0.0296   +0.0280   -0.0080   +0.0000   +0.0096
  30  C    +0.0007   -0.0022   -0.0015   +0.0000   +0.0044
  31  C    +0.0083   +0.0053   -0.0007   +0.0000   +0.0036
  32  C    +0.0021   +0.0014   +0.0000   +0.0000   +0.0006
  33  C    +0.0231   +0.0213   -0.0047   +0.0000   +0.0065
  34  C    +0.0064   +0.0057   -0.0000   +0.0000   +0.0008
  35  C    +0.0026   +0.0021   -0.0036   +0.0000   +0.0041
  36  C    +0.0177   +0.0140   -0.0008   +0.0000   +0.0045
  37  C    +0.0033   +0.0020   -0.0001   +0.0000   +0.0013
  38  C    +0.0516   +0.0490   -0.0049   +0.0000   +0.0075
  39  C    +0.0215   +0.0175   -0.0019   +0.0000   +0.0060
  40  C    +0.0041   +0.0017   -0.0020   +0.0000   +0.0044
  41  OA   -0.0373   -0.0397   +0.0000   -0.0006   +0.0031
  42  OA   -0.1009   -0.0572   +0.0000   -0.0476   +0.0038
  43  C    +0.0089   +0.0049   -0.0016   +0.0000   +0.0056
  44  OA   -0.3829   -0.2055   -0.0018   -0.1924   +0.0169
  45  C    +0.1010   +0.1047   -0.0399   +0.0000   +0.0362
  46  C    -0.0389   +0.0054   -0.0537   +0.0000   +0.0094
  47  C    -0.0294   -0.0021   -0.0367   +0.0000   +0.0094
  48  C    -0.0149   +0.0090   -0.0297   +0.0000   +0.0059
  49  C    +0.0161   +0.0605   -0.0618   +0.0000   +0.0174
  50  OA   -0.1403   -0.1255   -0.0253   -0.0112   +0.0216
  51  C    -0.0285   +0.0204   -0.0617   +0.0000   +0.0128
  52  OA   -0.4001   -0.1983   -0.0416   -0.1859   +0.0258
  53  HD   +0.0353   +0.0131   -0.0071   -0.0036   +0.0328
  54  N    -0.0497   -0.0080   -0.0431   +0.0000   +0.0015
  55  HD   -0.4052   -0.1440   -0.0173   -0.3029   +0.0590
  56  HD   -0.0495   -0.0717   -0.0068   -0.0099   +0.0389
  57  HD   -0.1252   -0.0876   -0.0195   -0.0745   +0.0565
  58  OA   -0.1073   -0.1093   -0.0067   -0.0044   +0.0131
  59  HD   +0.0306   +0.0181   -0.0063   -0.0028   +0.0217
  60  OA   +0.0660   +0.0951   -0.0420   -0.0124   +0.0254
  61  HD   -0.1428   -0.0973   -0.0139   -0.0756   +0.0439
  62  C    +0.0744   +0.0712   -0.0150   +0.0000   +0.0182
  63  OA   -0.0228   -0.0254   -0.0413   -0.0031   +0.0470
  64  OA   -0.0730   +0.0215   -0.0601   -0.0832   +0.0487
  65  OA   +0.0663   +0.0791   -0.0242   -0.0055   +0.0169
  66  HD   -0.1019   -0.0935   -0.0168   -0.0344   +0.0428
  67  OA   -0.0539   -0.0585   -0.0002   -0.0021   +0.0069
  68  HD   -0.0454   -0.0366   -0.0119   -0.0343   +0.0374
  69  OA   -0.0474   -0.0523   -0.0004   -0.0009   +0.0063
  70  HD   +0.0305   -0.0012   -0.0159   -0.0020   +0.0495
  71  OA   -0.0936   -0.0861   +0.0000   -0.0128   +0.0054
  72  HD   -0.0296   -0.0114   -0.0119   -0.0410   +0.0347
  73  OA   -0.1674   -0.1155   +0.0000   -0.0572   +0.0053
  74  HD   -0.0277   -0.0087   -0.0123   -0.0402   +0.0335
  75  OA   -0.0979   -0.0738   +0.0000   -0.0276   +0.0034
  76  HD   -0.0663   -0.0241   -0.0107   -0.0646   +0.0330
  77  OA   -0.0135   -0.0137   +0.0000   +0.0000   +0.0002
  78  HD   +0.0200   +0.0047   -0.0107   -0.0001   +0.0261


Total Intramolecular Interaction Energy   = -2.252 kcal/mol


The internal energy of the unbound extended state was computed to be -2.252 kcal/mol

NOTE:   The AutoDock internal energy of the "extended" state was negative.

NOTE:   The unbound state was set to the "extended" state.



The internal energy of the unbound state was set to -2.252 kcal/mol



	FINAL UNBOUND STATE
	___________________


Detailed state:  trans -33.259 52.039 16.960 quatxyzw -0.546072 -0.422271 0.723321 0.017279 center 31.688 -15.344 6.764 ntor 14 -76.4351 74.1485 -28.0420 150.3083 -175.2028 -2.1720 177.8519 180.0000 -173.3430 166.7897 -54.9828 160.0369 69.2802 95.5095
State:	-33.259  52.039  16.960  -0.546 -0.422  0.723 178.020    -76.44   74.15  -28.04  150.31 -175.20   -2.17  177.85  180.00 -173.34  166.79  -54.98  160.04   69.28   95.51

UNBOUND: MODEL        0
UNBOUND: USER    Run = 0
UNBOUND: USER    DPF = nystatin.dpf
UNBOUND: USER  
UNBOUND: USER    (1) Final Intermolecular Energy     =   +0.00 kcal/mol
UNBOUND: USER        vdW + Hbond + desolv Energy     =   +0.00 kcal/mol
UNBOUND: USER        Electrostatic Energy            =   +0.00 kcal/mol
UNBOUND: USER    (2) Final Total Internal Energy     =   -2.25 kcal/mol
UNBOUND: USER    (3) Torsional Free Energy           =   +4.18 kcal/mol
UNBOUND: USER    (4) Unbound System's Energy         =   -2.25 kcal/mol
UNBOUND: USER    
UNBOUND: USER    
UNBOUND: USER    NEWDPF move nystatin.pdbqt
UNBOUND: USER    NEWDPF about 31.688100 -15.344400 6.764500
UNBOUND: USER    NEWDPF tran0 -33.258647 52.039476 16.960127
UNBOUND: USER    NEWDPF quaternion0 -0.546072 -0.422271 0.723321 0.017279
UNBOUND: USER    NEWDPF axisangle0 -0.546154 -0.422334 0.723429 178.019826
UNBOUND: USER    NEWDPF quat0 -0.546154 -0.422334 0.723429 178.019826
UNBOUND: USER    NEWDPF dihe0 -76.44 74.15 -28.04 150.31 -175.20 -2.17 177.85 180.00 -173.34 166.79 -54.98 160.04 69.28 95.51 
UNBOUND: USER  keepresnum = 1 
UNBOUND: USER  
UNBOUND: REMARK  14 active torsions:
UNBOUND: REMARK  status: ('A' for Active; 'I' for Inactive)
UNBOUND: REMARK    1  A    between atoms: C1_1  and  O1_2 
UNBOUND: REMARK    2  A    between atoms: O1_2  and  C3_5 
UNBOUND: REMARK    3  A    between atoms: C2_3  and  O3_7 
UNBOUND: REMARK    4  A    between atoms: C4_6  and  N1_13 
UNBOUND: REMARK    5  A    between atoms: C8_12  and  O4_20 
UNBOUND: REMARK    6  A    between atoms: C10_18  and  O5_23 
UNBOUND: REMARK    7  A    between atoms: C12_22  and  C15_27 
UNBOUND: REMARK    8  A    between atoms: C14_26  and  O6_30 
UNBOUND: REMARK    9  A    between atoms: C23_40  and  O10_43 
UNBOUND: REMARK   10  A    between atoms: C25_42  and  O11_47 
UNBOUND: REMARK   11  A    between atoms: C31_52  and  O12_55 
UNBOUND: REMARK   12  A    between atoms: C35_58  and  O13_61 
UNBOUND: REMARK   13  A    between atoms: C39_64  and  O14_68 
UNBOUND: REMARK   14  A    between atoms: C40_65  and  O15_71 
UNBOUND: USER                              x       y       z     vdW  Elec       q    Type
UNBOUND: USER                           _______ _______ _______ _____ _____    ______ ____
UNBOUND: ROOT
UNBOUND: ATOM      1  C3  UNK     1     -32.945  58.410  14.221 +0.00 +0.00    +0.150 C 
UNBOUND: ATOM      2  C6  UNK     1     -34.398  57.972  13.960 +0.00 +0.00    +0.068 C 
UNBOUND: ATOM      3  C7  UNK     1     -32.179  57.490  15.165 +0.00 +0.00    +0.005 C 
UNBOUND: ATOM      4  C10 UNK     1     -35.315  59.152  13.570 +0.00 +0.00    +0.137 C 
UNBOUND: ATOM      5  C11 UNK     1     -32.321  56.169  15.151 +0.00 +0.00    -0.002 C 
UNBOUND: ATOM      6  C12 UNK     1     -36.707  58.710  13.013 +0.00 +0.00    +0.144 C 
UNBOUND: ATOM      7  C13 UNK     1     -31.690  55.375  16.008 +0.00 +0.00    -0.000 C 
UNBOUND: ATOM      8  C14 UNK     1     -37.554  57.728  13.882 +0.00 +0.00    +0.142 C 
UNBOUND: ATOM      9  C16 UNK     1     -31.974  54.085  16.148 +0.00 +0.00    +0.000 C 
UNBOUND: ATOM     10  C17 UNK     1     -37.273  56.252  13.511 +0.00 +0.00    +0.111 C 
UNBOUND: ATOM     11  C18 UNK     1     -31.340  53.298  17.011 +0.00 +0.00    +0.000 C 
UNBOUND: ATOM     12  C19 UNK     1     -37.741  55.254  14.555 +0.00 +0.00    +0.131 C 
UNBOUND: ATOM     13  C20 UNK     1     -31.636  52.015  17.182 +0.00 +0.00    -0.000 C 
UNBOUND: ATOM     14  C21 UNK     1     -36.606  54.488  15.228 +0.00 +0.00    +0.112 C 
UNBOUND: ATOM     15  O9  UNK     1     -38.963  55.078  14.814 +0.00 +0.00    -0.298 OA
UNBOUND: ATOM     16  C22 UNK     1     -30.969  51.228  18.018 +0.00 +0.00    -0.004 C 
UNBOUND: ATOM     17  C23 UNK     1     -37.086  53.323  16.120 +0.00 +0.00    +0.153 C 
UNBOUND: ATOM     18  C24 UNK     1     -31.183  49.921  18.112 +0.00 +0.00    -0.026 C 
UNBOUND: ATOM     19  C25 UNK     1     -35.928  52.428  16.632 +0.00 +0.00    +0.147 C 
UNBOUND: ATOM     20  C26 UNK     1     -30.342  49.049  19.032 +0.00 +0.00    +0.031 C 
UNBOUND: ATOM     21  C27 UNK     1     -36.497  51.215  17.397 +0.00 +0.00    +0.037 C 
UNBOUND: ATOM     22  C28 UNK     1     -31.178  48.145  19.952 +0.00 +0.00    +0.031 C 
UNBOUND: ATOM     23  C29 UNK     1     -35.411  50.348  18.067 +0.00 +0.00    +0.034 C 
UNBOUND: ATOM     24  C30 UNK     1     -30.302  47.243  20.809 +0.00 +0.00    -0.026 C 
UNBOUND: ATOM     25  C31 UNK     1     -36.066  49.232  18.910 +0.00 +0.00    +0.120 C 
UNBOUND: ATOM     26  C32 UNK     1     -30.296  45.926  20.647 +0.00 +0.00    -0.004 C 
UNBOUND: ATOM     27  C33 UNK     1     -35.014  48.270  19.505 +0.00 +0.00    +0.063 C 
UNBOUND: ATOM     28  C34 UNK     1     -29.509  45.116  21.348 +0.00 +0.00    -0.004 C 
UNBOUND: ATOM     29  C35 UNK     1     -35.609  46.927  19.998 +0.00 +0.00    +0.123 C 
UNBOUND: ATOM     30  C36 UNK     1     -29.488  43.801  21.169 +0.00 +0.00    -0.020 C 
UNBOUND: ATOM     31  C37 UNK     1     -34.513  46.102  20.707 +0.00 +0.00    +0.064 C 
UNBOUND: ATOM     32  C38 UNK     1     -28.531  42.902  21.942 +0.00 +0.00    +0.033 C 
UNBOUND: ATOM     33  C39 UNK     1     -34.940  44.674  21.121 +0.00 +0.00    +0.130 C 
UNBOUND: ATOM     34  C40 UNK     1     -29.164  42.207  23.192 +0.00 +0.00    +0.131 C 
UNBOUND: ATOM     35  C41 UNK     1     -27.791  41.962  20.964 +0.00 +0.00    +0.017 C 
UNBOUND: ATOM     36  C42 UNK     1     -33.708  43.924  21.660 +0.00 +0.00    +0.142 C 
UNBOUND: ATOM     37  C43 UNK     1     -30.525  41.447  23.089 +0.00 +0.00    +0.040 C 
UNBOUND: ATOM     38  C44 UNK     1     -33.970  42.464  22.027 +0.00 +0.00    +0.261 C 
UNBOUND: ATOM     39  C45 UNK     1     -31.720  42.437  23.149 +0.00 +0.00    +0.134 C 
UNBOUND: ATOM     40  C46 UNK     1     -30.602  40.496  21.876 +0.00 +0.00    +0.015 C 
UNBOUND: ATOM     41  O16 UNK     1     -32.934  41.812  22.635 +0.00 +0.00    -0.316 OA
UNBOUND: ATOM     42  O17 UNK     1     -35.040  41.853  21.759 +0.00 +0.00    -0.265 OA
UNBOUND: ATOM     43  C47 UNK     1     -32.003  42.918  24.587 +0.00 +0.00    +0.040 C 
UNBOUND: ENDROOT
UNBOUND: BRANCH   1  44
UNBOUND: ATOM     44  O1  UNK     1     -32.288  58.483  12.933 +0.00 +0.00    -0.349 OA
UNBOUND: BRANCH  44  45
UNBOUND: ATOM     45  C1  UNK     1     -31.062  57.739  12.716 +0.00 +0.00    +0.291 C 
UNBOUND: ATOM     46  C2  UNK     1     -30.581  57.852  11.255 +0.00 +0.00    +0.206 C 
UNBOUND: ATOM     47  C4  UNK     1     -30.238  59.308  10.874 +0.00 +0.00    +0.247 C 
UNBOUND: ATOM     48  C8  UNK     1     -29.210  59.900  11.866 +0.00 +0.00    +0.179 C 
UNBOUND: ATOM     49  C5  UNK     1     -29.517  59.626  13.361 +0.00 +0.00    +0.151 C 
UNBOUND: ATOM     50  O2  UNK     1     -29.999  58.262  13.554 +0.00 +0.00    -0.351 OA
UNBOUND: ATOM     51  C9  UNK     1     -30.474  60.657  13.989 +0.00 +0.00    +0.042 C 
UNBOUND: BRANCH  46  52
UNBOUND: ATOM     52  O3  UNK     1     -31.539  57.300  10.345 +0.00 +0.00    -0.388 OA
UNBOUND: ATOM     53  H5  UNK     1     -31.085  56.773   9.683 +0.00 +0.00    +0.210 HD
UNBOUND: ENDBRANCH  46  52
UNBOUND: BRANCH  47  54
UNBOUND: ATOM     54  N1  UNK     1     -31.468  60.169  10.750 +0.00 +0.00    -0.070 N 
UNBOUND: ATOM     55  H11 UNK     1     -32.303  59.574  10.649 +0.00 +0.00    +0.274 HD
UNBOUND: ATOM     56  H12 UNK     1     -31.373  60.779   9.923 +0.00 +0.00    +0.274 HD
UNBOUND: ATOM     57  H13 UNK     1     -31.559  60.756  11.591 +0.00 +0.00    +0.274 HD
UNBOUND: ENDBRANCH  47  54
UNBOUND: BRANCH  48  58
UNBOUND: ATOM     58  O4  UNK     1     -27.925  59.345  11.560 +0.00 +0.00    -0.391 OA
UNBOUND: ATOM     59  H19 UNK     1     -27.255  60.032  11.601 +0.00 +0.00    +0.210 HD
UNBOUND: ENDBRANCH  48  58
UNBOUND: ENDBRANCH  44  45
UNBOUND: ENDBRANCH   1  44
UNBOUND: BRANCH   4  60
UNBOUND: ATOM     60  O5  UNK     1     -35.449  60.016  14.711 +0.00 +0.00    -0.394 OA
UNBOUND: ATOM     61  H21 UNK     1     -35.631  60.908  14.402 +0.00 +0.00    +0.210 HD
UNBOUND: ENDBRANCH   4  60
UNBOUND: BRANCH   6  62
UNBOUND: ATOM     62  C15 UNK     1     -37.572  59.884  12.555 +0.00 +0.00    +0.182 C 
UNBOUND: ATOM     63  O7  UNK     1     -37.714  60.094  11.319 +0.00 +0.00    -0.648 OA
UNBOUND: ATOM     64  O8  UNK     1     -38.145  60.650  13.377 +0.00 +0.00    -0.648 OA
UNBOUND: ENDBRANCH   6  62
UNBOUND: BRANCH   8  65
UNBOUND: ATOM     65  O6  UNK     1     -37.384  57.957  15.290 +0.00 +0.00    -0.394 OA
UNBOUND: ATOM     66  H27 UNK     1     -38.148  58.426  15.633 +0.00 +0.00    +0.210 HD
UNBOUND: ENDBRANCH   8  65
UNBOUND: BRANCH  17  67
UNBOUND: ATOM     67  O10 UNK     1     -37.787  53.876  17.246 +0.00 +0.00    -0.393 OA
UNBOUND: ATOM     68  H36 UNK     1     -38.672  53.505  17.288 +0.00 +0.00    +0.210 HD
UNBOUND: ENDBRANCH  17  67
UNBOUND: BRANCH  19  69
UNBOUND: ATOM     69  O11 UNK     1     -35.131  51.956  15.536 +0.00 +0.00    -0.393 OA
UNBOUND: ATOM     70  H41 UNK     1     -35.667  51.398  14.968 +0.00 +0.00    +0.210 HD
UNBOUND: ENDBRANCH  19  69
UNBOUND: BRANCH  25  71
UNBOUND: ATOM     71  O12 UNK     1     -36.816  49.841  19.975 +0.00 +0.00    -0.395 OA
UNBOUND: ATOM     72  H51 UNK     1     -37.747  49.633  19.866 +0.00 +0.00    +0.210 HD
UNBOUND: ENDBRANCH  25  71
UNBOUND: BRANCH  29  73
UNBOUND: ATOM     73  O13 UNK     1     -36.710  47.152  20.889 +0.00 +0.00    -0.395 OA
UNBOUND: ATOM     74  H57 UNK     1     -37.493  46.713  20.548 +0.00 +0.00    +0.210 HD
UNBOUND: ENDBRANCH  29  73
UNBOUND: BRANCH  33  75
UNBOUND: ATOM     75  O14 UNK     1     -35.938  44.714  22.154 +0.00 +0.00    -0.395 OA
UNBOUND: ATOM     76  H66 UNK     1     -36.678  44.156  21.906 +0.00 +0.00    +0.210 HD
UNBOUND: ENDBRANCH  33  75
UNBOUND: BRANCH  34  77
UNBOUND: ATOM     77  O15 UNK     1     -28.200  41.321  23.780 +0.00 +0.00    -0.394 OA
UNBOUND: ATOM     78  H68 UNK     1     -27.779  41.757  24.525 +0.00 +0.00    +0.210 HD
UNBOUND: ENDBRANCH  34  77
UNBOUND: TORSDOF 14
UNBOUND: TER
UNBOUND: ENDMDL
________________________________________________________________________________

DPF> ga_run 10                            # do this many hybrid GA-LS runs

centering ligand on specified point: 31.688 -15.344 6.764
Furthest true ligand atom from "about" center is 14.044 Angstroms (maxrad).
Number of requested GA dockings = 10 runs
Unbound model to be used is 'extended' [AutoDock 4.0 default].

	BEGINNING GENETIC ALGORITHM DOCKING 1 of 10
Run: 1 Seed: 129455262 649964311 [ Run 1 of 10 GA/GALS ]
Beginning LAMARCKIAN GENETIC ALGORITHM (LGA), with a maximum of 2500000 energy evaluations.

Final-Value: -19.955


	FINAL GENETIC ALGORITHM DOCKED STATE
	_______________________________________________


Detailed state:  trans 2.660 -31.595 11.032 quatxyzw -0.697536 0.589856 0.399249 0.078195 center 31.688 -15.344 6.764 ntor 14 3.1830 179.9903 45.2356 64.1652 131.5338 179.9675 -111.5484 -61.5141 117.9462 124.0904 179.2598 6.2421 -51.4961 -61.6230
State:	  2.660 -31.595  11.032  -0.700  0.592  0.400 171.030      3.18  179.99   45.24   64.17  131.53  179.97 -111.55  -61.51  117.95  124.09  179.26    6.24  -51.50  -61.62

DOCKED: MODEL        1
DOCKED: USER    Run = 1
DOCKED: USER    DPF = nystatin.dpf
DOCKED: USER  
DOCKED: USER    Estimated Free Energy of Binding    =  -13.53 kcal/mol  [=(1)+(2)+(3)-(4)]
DOCKED: USER    Estimated Inhibition Constant, Ki   =  121.67 pM (picomolar)  [Temperature = 298.15 K]
DOCKED: USER    
DOCKED: USER    (1) Final Intermolecular Energy     =  -13.35 kcal/mol
DOCKED: USER        vdW + Hbond + desolv Energy     =  -13.35 kcal/mol
DOCKED: USER        Electrostatic Energy            =   +0.01 kcal/mol
DOCKED: USER    (2) Final Total Internal Energy     =   -6.61 kcal/mol
DOCKED: USER    (3) Torsional Free Energy           =   +4.18 kcal/mol
DOCKED: USER    (4) Unbound System's Energy         =   -2.25 kcal/mol
DOCKED: USER    
DOCKED: USER    
DOCKED: USER    NEWDPF move nystatin.pdbqt
DOCKED: USER    NEWDPF about 31.688100 -15.344400 6.764500
DOCKED: USER    NEWDPF tran0 2.659606 -31.595343 11.032292
DOCKED: USER    NEWDPF quaternion0 -0.697536 0.589856 0.399249 0.078195
DOCKED: USER    NEWDPF axisangle0 -0.699678 0.591667 0.400475 171.030317
DOCKED: USER    NEWDPF quat0 -0.699678 0.591667 0.400475 171.030317
DOCKED: USER    NEWDPF dihe0 3.18 179.99 45.24 64.17 131.53 179.97 -111.55 -61.51 117.95 124.09 179.26 6.24 -51.50 -61.62 
DOCKED: USER  keepresnum = 1 
DOCKED: USER  
DOCKED: REMARK  14 active torsions:
DOCKED: REMARK  status: ('A' for Active; 'I' for Inactive)
DOCKED: REMARK    1  A    between atoms: C1_1  and  O1_2 
DOCKED: REMARK    2  A    between atoms: O1_2  and  C3_5 
DOCKED: REMARK    3  A    between atoms: C2_3  and  O3_7 
DOCKED: REMARK    4  A    between atoms: C4_6  and  N1_13 
DOCKED: REMARK    5  A    between atoms: C8_12  and  O4_20 
DOCKED: REMARK    6  A    between atoms: C10_18  and  O5_23 
DOCKED: REMARK    7  A    between atoms: C12_22  and  C15_27 
DOCKED: REMARK    8  A    between atoms: C14_26  and  O6_30 
DOCKED: REMARK    9  A    between atoms: C23_40  and  O10_43 
DOCKED: REMARK   10  A    between atoms: C25_42  and  O11_47 
DOCKED: REMARK   11  A    between atoms: C31_52  and  O12_55 
DOCKED: REMARK   12  A    between atoms: C35_58  and  O13_61 
DOCKED: REMARK   13  A    between atoms: C39_64  and  O14_68 
DOCKED: REMARK   14  A    between atoms: C40_65  and  O15_71 
DOCKED: USER                              x       y       z     vdW  Elec       q    Type
DOCKED: USER                           _______ _______ _______ _____ _____    ______ ____
DOCKED: ROOT
DOCKED: ATOM      1  C3  UNK     1       7.199 -36.803  10.362 -0.16 +0.00    +0.150 C 
DOCKED: ATOM      2  C6  UNK     1       6.494 -36.757   8.994 -0.27 +0.00    +0.068 C 
DOCKED: ATOM      3  C7  UNK     1       6.893 -35.610  11.259 -0.16 +0.00    +0.005 C 
DOCKED: ATOM      4  C10 UNK     1       7.249 -37.552   7.907 -0.20 +0.00    +0.137 C 
DOCKED: ATOM      5  C11 UNK     1       5.690 -35.050  11.323 -0.19 -0.00    -0.002 C 
DOCKED: ATOM      6  C12 UNK     1       6.420 -37.774   6.600 -0.26 +0.00    +0.144 C 
DOCKED: ATOM      7  C13 UNK     1       5.440 -33.980  12.068 -0.16 -0.00    -0.000 C 
DOCKED: ATOM      8  C14 UNK     1       5.802 -36.516   5.914 -0.30 +0.00    +0.142 C 
DOCKED: ATOM      9  C16 UNK     1       4.312 -33.285  11.987 -0.19 +0.00    +0.000 C 
DOCKED: ATOM     10  C17 UNK     1       4.366 -36.239   6.420 -0.10 +0.00    +0.111 C 
DOCKED: ATOM     11  C18 UNK     1       4.071 -32.212  12.733 -0.22 +0.00    +0.000 C 
DOCKED: ATOM     12  C19 UNK     1       3.861 -34.841   6.110 -0.20 +0.00    +0.131 C 
DOCKED: ATOM     13  C20 UNK     1       2.960 -31.492  12.639 -0.29 -0.00    -0.000 C 
DOCKED: ATOM     14  C21 UNK     1       3.627 -33.982   7.349 -0.24 +0.00    +0.112 C 
DOCKED: ATOM     15  O9  UNK     1       3.645 -34.452   4.930 -0.22 -0.00    -0.298 OA
DOCKED: ATOM     16  C22 UNK     1       2.712 -30.445  13.419 -0.38 -0.00    -0.004 C 
DOCKED: ATOM     17  C23 UNK     1       2.907 -32.649   7.054 -0.29 +0.00    +0.153 C 
DOCKED: ATOM     18  C24 UNK     1       1.558 -29.790  13.409 -0.45 -0.00    -0.026 C 
DOCKED: ATOM     19  C25 UNK     1       2.492 -31.881   8.335 -0.31 +0.00    +0.147 C 
DOCKED: ATOM     20  C26 UNK     1       1.296 -28.643  14.374 -0.47 +0.00    +0.031 C 
DOCKED: ATOM     21  C27 UNK     1       1.662 -30.637   7.959 -0.36 +0.00    +0.037 C 
DOCKED: ATOM     22  C28 UNK     1       0.770 -27.373  13.686 -0.56 +0.00    +0.031 C 
DOCKED: ATOM     23  C29 UNK     1       1.329 -29.734   9.165 -0.42 +0.00    +0.034 C 
DOCKED: ATOM     24  C30 UNK     1       0.458 -26.273  14.690 -0.51 -0.00    -0.026 C 
DOCKED: ATOM     25  C31 UNK     1       0.607 -28.454   8.690 -0.39 +0.00    +0.120 C 
DOCKED: ATOM     26  C32 UNK     1      -0.785 -25.857  14.899 -0.47 -0.00    -0.004 C 
DOCKED: ATOM     27  C33 UNK     1       0.153 -27.577   9.877 -0.46 +0.00    +0.063 C 
DOCKED: ATOM     28  C34 UNK     1      -1.094 -24.931  15.801 -0.24 -0.00    -0.004 C 
DOCKED: ATOM     29  C35 UNK     1      -0.914 -26.520   9.496 -0.35 +0.00    +0.123 C 
DOCKED: ATOM     30  C36 UNK     1      -2.341 -24.533  16.025 -0.31 +0.00    -0.020 C 
DOCKED: ATOM     31  C37 UNK     1      -1.190 -25.601  10.706 -0.38 +0.00    +0.064 C 
DOCKED: ATOM     32  C38 UNK     1      -2.675 -23.515  17.108 -0.23 -0.00    +0.033 C 
DOCKED: ATOM     33  C39 UNK     1      -2.344 -24.590  10.504 -0.22 +0.00    +0.130 C 
DOCKED: ATOM     34  C40 UNK     1      -2.843 -22.049  16.589 -0.13 -0.00    +0.131 C 
DOCKED: ATOM     35  C41 UNK     1      -3.831 -24.045  17.986 -0.13 -0.00    +0.017 C 
DOCKED: ATOM     36  C42 UNK     1      -2.608 -23.865  11.836 -0.21 +0.00    +0.142 C 
DOCKED: ATOM     37  C43 UNK     1      -3.755 -21.729  15.361 -0.19 -0.00    +0.040 C 
DOCKED: ATOM     38  C44 UNK     1      -3.787 -22.895  11.802 -0.07 +0.00    +0.261 C 
DOCKED: ATOM     39  C45 UNK     1      -3.014 -22.018  14.028 -0.22 +0.00    +0.134 C 
DOCKED: ATOM     40  C46 UNK     1      -5.137 -22.412  15.434 -0.07 -0.00    +0.015 C 
DOCKED: ATOM     41  O16 UNK     1      -3.962 -22.136  12.926 -0.04 -0.00    -0.316 OA
DOCKED: ATOM     42  O17 UNK     1      -4.597 -22.805  10.839 -0.03 -0.00    -0.265 OA
DOCKED: ATOM     43  C47 UNK     1      -2.004 -20.908  13.673 -0.33 +0.00    +0.040 C 
DOCKED: ENDROOT
DOCKED: BRANCH   1  44
DOCKED: ATOM     44  O1  UNK     1       6.800 -38.039  11.001 -0.16 -0.00    -0.349 OA
DOCKED: BRANCH  44  45
DOCKED: ATOM     45  C1  UNK     1       7.409 -39.287  10.582 -0.22 +0.00    +0.291 C 
DOCKED: ATOM     46  C2  UNK     1       8.948 -39.221  10.660 -0.08 +0.00    +0.206 C 
DOCKED: ATOM     47  C4  UNK     1       9.442 -39.001  12.106 -0.05 +0.00    +0.247 C 
DOCKED: ATOM     48  C8  UNK     1       8.865 -40.084  13.046 -0.14 +0.00    +0.179 C 
DOCKED: ATOM     49  C5  UNK     1       7.350 -40.363  12.863 -0.29 +0.00    +0.151 C 
DOCKED: ATOM     50  O2  UNK     1       6.987 -40.371  11.449 -0.28 -0.01    -0.351 OA
DOCKED: ATOM     51  C9  UNK     1       6.449 -39.411  13.671 -0.38 +0.00    +0.042 C 
DOCKED: BRANCH  46  52
DOCKED: ATOM     52  O3  UNK     1       9.473 -38.217   9.784 -0.01 -0.00    -0.388 OA
DOCKED: ATOM     53  H5  UNK     1       9.184 -38.392   8.885 +0.04 +0.00    +0.210 HD
DOCKED: ENDBRANCH  46  52
DOCKED: BRANCH  47  54
DOCKED: ATOM     54  N1  UNK     1       9.154 -37.608  12.601 -0.04 -0.00    -0.070 N 
DOCKED: ATOM     55  H11 UNK     1       9.619 -37.456  13.508 +0.03 +0.00    +0.274 HD
DOCKED: ATOM     56  H12 UNK     1       8.136 -37.489  12.708 +0.06 +0.00    +0.274 HD
DOCKED: ATOM     57  H13 UNK     1       9.502 -36.924  11.914 +0.03 +0.00    +0.274 HD
DOCKED: ENDBRANCH  47  54
DOCKED: BRANCH  48  58
DOCKED: ATOM     58  O4  UNK     1       9.579 -41.304  12.814 -0.05 -0.01    -0.391 OA
DOCKED: ATOM     59  H19 UNK     1       8.980 -41.973  12.474 +0.06 +0.01    +0.210 HD
DOCKED: ENDBRANCH  48  58
DOCKED: ENDBRANCH  44  45
DOCKED: ENDBRANCH   1  44
DOCKED: BRANCH   4  60
DOCKED: ATOM     60  O5  UNK     1       8.493 -36.882   7.639 -0.06 -0.00    -0.394 OA
DOCKED: ATOM     61  H21 UNK     1       8.608 -36.817   6.688 +0.05 +0.00    +0.210 HD
DOCKED: ENDBRANCH   4  60
DOCKED: BRANCH   6  62
DOCKED: ATOM     62  C15 UNK     1       7.148 -38.631   5.564 -0.14 +0.00    +0.182 C 
DOCKED: ATOM     63  O7  UNK     1       8.403 -38.743   5.636 +0.02 -0.00    -0.648 OA
DOCKED: ATOM     64  O8  UNK     1       6.531 -39.225   4.639 -0.02 -0.01    -0.648 OA
DOCKED: ENDBRANCH   6  62
DOCKED: BRANCH   8  65
DOCKED: ATOM     65  O6  UNK     1       6.637 -35.355   6.045 -0.06 -0.00    -0.394 OA
DOCKED: ATOM     66  H27 UNK     1       7.524 -35.624   6.293 +0.04 +0.00    +0.210 HD
DOCKED: ENDBRANCH   8  65
DOCKED: BRANCH  17  67
DOCKED: ATOM     67  O10 UNK     1       3.788 -31.823   6.274 -0.07 +0.00    -0.393 OA
DOCKED: ATOM     68  H36 UNK     1       3.872 -32.187   5.390 +0.05 -0.00    +0.210 HD
DOCKED: ENDBRANCH  17  67
DOCKED: BRANCH  19  69
DOCKED: ATOM     69  O11 UNK     1       1.709 -32.721   9.197 -0.10 -0.00    -0.393 OA
DOCKED: ATOM     70  H41 UNK     1       2.162 -32.829  10.036 +0.09 +0.00    +0.210 HD
DOCKED: ENDBRANCH  19  69
DOCKED: BRANCH  25  71
DOCKED: ATOM     71  O12 UNK     1       1.504 -27.704   7.854 -0.12 -0.01    -0.395 OA
DOCKED: ATOM     72  H51 UNK     1       1.107 -26.855   7.644 +0.10 +0.00    +0.210 HD
DOCKED: ENDBRANCH  25  71
DOCKED: BRANCH  29  73
DOCKED: ATOM     73  O13 UNK     1      -0.483 -25.740   8.373 -0.11 -0.01    -0.395 OA
DOCKED: ATOM     74  H57 UNK     1      -0.417 -24.817   8.630 +0.09 +0.00    +0.210 HD
DOCKED: ENDBRANCH  29  73
DOCKED: BRANCH  33  75
DOCKED: ATOM     75  O14 UNK     1      -2.002 -23.610   9.511 -0.06 -0.00    -0.395 OA
DOCKED: ATOM     76  H66 UNK     1      -1.842 -24.047   8.672 +0.06 +0.00    +0.210 HD
DOCKED: ENDBRANCH  33  75
DOCKED: BRANCH  34  77
DOCKED: ATOM     77  O15 UNK     1      -3.245 -21.204  17.677 -0.11 +0.06    -0.394 OA
DOCKED: ATOM     78  H68 UNK     1      -2.606 -21.279  18.391 -0.13 -0.06    +0.210 HD
DOCKED: ENDBRANCH  34  77
DOCKED: TORSDOF 14
DOCKED: TER
DOCKED: ENDMDL
________________________________________________________________________________


	BEGINNING GENETIC ALGORITHM DOCKING 2 of 10
Run: 2 Seed: 1812998925 317145124 [ Run 2 of 10 GA/GALS ]
Beginning LAMARCKIAN GENETIC ALGORITHM (LGA), with a maximum of 2500000 energy evaluations.

Final-Value: -17.132


	FINAL GENETIC ALGORITHM DOCKED STATE
	_______________________________________________


Detailed state:  trans 35.911 -10.606 11.185 quatxyzw -0.936206 0.335900 -0.031525 0.098464 center 31.688 -15.344 6.764 ntor 14 57.6883 -171.9403 52.4491 74.3406 116.4464 -173.3512 -131.6381 38.5735 98.7278 72.6072 147.8135 -174.8624 55.3120 131.6389
State:	 35.911 -10.606  11.185  -0.941  0.338 -0.032 168.699     57.69 -171.94   52.45   74.34  116.45 -173.35 -131.64   38.57   98.73   72.61  147.81 -174.86   55.31  131.64

DOCKED: MODEL        2
DOCKED: USER    Run = 2
DOCKED: USER    DPF = nystatin.dpf
DOCKED: USER  
DOCKED: USER    Estimated Free Energy of Binding    =  -10.70 kcal/mol  [=(1)+(2)+(3)-(4)]
DOCKED: USER    Estimated Inhibition Constant, Ki   =   14.26 nM (nanomolar)  [Temperature = 298.15 K]
DOCKED: USER    
DOCKED: USER    (1) Final Intermolecular Energy     =  -10.80 kcal/mol
DOCKED: USER        vdW + Hbond + desolv Energy     =  -10.77 kcal/mol
DOCKED: USER        Electrostatic Energy            =   -0.03 kcal/mol
DOCKED: USER    (2) Final Total Internal Energy     =   -6.33 kcal/mol
DOCKED: USER    (3) Torsional Free Energy           =   +4.18 kcal/mol
DOCKED: USER    (4) Unbound System's Energy         =   -2.25 kcal/mol
DOCKED: USER    
DOCKED: USER    
DOCKED: USER    NEWDPF move nystatin.pdbqt
DOCKED: USER    NEWDPF about 31.688100 -15.344400 6.764500
DOCKED: USER    NEWDPF tran0 35.910564 -10.605987 11.184925
DOCKED: USER    NEWDPF quaternion0 -0.936206 0.335900 -0.031525 0.098464
DOCKED: USER    NEWDPF axisangle0 -0.940778 0.337541 -0.031679 168.698519
DOCKED: USER    NEWDPF quat0 -0.940778 0.337541 -0.031679 168.698519
DOCKED: USER    NEWDPF dihe0 57.69 -171.94 52.45 74.34 116.45 -173.35 -131.64 38.57 98.73 72.61 147.81 -174.86 55.31 131.64 
DOCKED: USER  keepresnum = 1 
DOCKED: USER  
DOCKED: REMARK  14 active torsions:
DOCKED: REMARK  status: ('A' for Active; 'I' for Inactive)
DOCKED: REMARK    1  A    between atoms: C1_1  and  O1_2 
DOCKED: REMARK    2  A    between atoms: O1_2  and  C3_5 
DOCKED: REMARK    3  A    between atoms: C2_3  and  O3_7 
DOCKED: REMARK    4  A    between atoms: C4_6  and  N1_13 
DOCKED: REMARK    5  A    between atoms: C8_12  and  O4_20 
DOCKED: REMARK    6  A    between atoms: C10_18  and  O5_23 
DOCKED: REMARK    7  A    between atoms: C12_22  and  C15_27 
DOCKED: REMARK    8  A    between atoms: C14_26  and  O6_30 
DOCKED: REMARK    9  A    between atoms: C23_40  and  O10_43 
DOCKED: REMARK   10  A    between atoms: C25_42  and  O11_47 
DOCKED: REMARK   11  A    between atoms: C31_52  and  O12_55 
DOCKED: REMARK   12  A    between atoms: C35_58  and  O13_61 
DOCKED: REMARK   13  A    between atoms: C39_64  and  O14_68 
DOCKED: REMARK   14  A    between atoms: C40_65  and  O15_71 
DOCKED: USER                              x       y       z     vdW  Elec       q    Type
DOCKED: USER                           _______ _______ _______ _____ _____    ______ ____
DOCKED: ROOT
DOCKED: ATOM      1  C3  UNK     1      41.166 -10.977  15.704 -0.16 -0.00    +0.150 C 
DOCKED: ATOM      2  C6  UNK     1      41.796 -11.435  14.375 -0.16 -0.00    +0.068 C 
DOCKED: ATOM      3  C7  UNK     1      39.774 -10.374  15.557 -0.35 +0.00    +0.005 C 
DOCKED: ATOM      4  C10 UNK     1      43.339 -11.436  14.416 -0.09 -0.00    +0.137 C 
DOCKED: ATOM      5  C11 UNK     1      38.875 -10.846  14.701 -0.43 -0.00    -0.002 C 
DOCKED: ATOM      6  C12 UNK     1      44.000 -12.170  13.205 -0.06 -0.00    +0.144 C 
DOCKED: ATOM      7  C13 UNK     1      37.681 -10.287  14.540 -0.31 -0.00    -0.000 C 
DOCKED: ATOM      8  C14 UNK     1      43.571 -11.729  11.770 -0.13 -0.00    +0.142 C 
DOCKED: ATOM      9  C16 UNK     1      36.854 -10.610  13.552 -0.55 +0.00    +0.000 C 
DOCKED: ATOM     10  C17 UNK     1      42.383 -12.571  11.246 -0.12 -0.00    +0.111 C 
DOCKED: ATOM     11  C18 UNK     1      35.663 -10.043  13.396 -0.56 +0.00    +0.000 C 
DOCKED: ATOM     12  C19 UNK     1      41.666 -11.954  10.058 -0.23 +0.00    +0.131 C 
DOCKED: ATOM     13  C20 UNK     1      34.840 -10.336  12.395 -0.52 -0.00    -0.000 C 
DOCKED: ATOM     14  C21 UNK     1      40.229 -11.537  10.355 -0.30 +0.00    +0.112 C 
DOCKED: ATOM     15  O9  UNK     1      42.221 -11.824   8.934 -0.19 -0.00    -0.298 OA
DOCKED: ATOM     16  C22 UNK     1      33.635  -9.792  12.272 -0.40 -0.00    -0.004 C 
DOCKED: ATOM     17  C23 UNK     1      39.431 -11.119   9.101 -0.30 +0.00    +0.153 C 
DOCKED: ATOM     18  C24 UNK     1      32.764 -10.163  11.341 -0.20 -0.00    -0.026 C 
DOCKED: ATOM     19  C25 UNK     1      37.923 -10.896   9.382 -0.32 +0.00    +0.147 C 
DOCKED: ATOM     20  C26 UNK     1      31.367  -9.561  11.286 -0.24 +0.00    +0.031 C 
DOCKED: ATOM     21  C27 UNK     1      37.176 -10.619   8.061 -0.32 +0.00    +0.037 C 
DOCKED: ATOM     22  C28 UNK     1      30.978  -9.045   9.892 -0.15 +0.00    +0.031 C 
DOCKED: ATOM     23  C29 UNK     1      35.693 -10.241   8.262 -0.18 +0.00    +0.034 C 
DOCKED: ATOM     24  C30 UNK     1      29.552  -8.513   9.863 -0.11 -0.00    -0.026 C 
DOCKED: ATOM     25  C31 UNK     1      35.052  -9.861   6.910 -0.20 +0.00    +0.120 C 
DOCKED: ATOM     26  C32 UNK     1      28.601  -9.116   9.161 -0.11 -0.00    -0.004 C 
DOCKED: ATOM     27  C33 UNK     1      33.538  -9.588   7.050 -0.21 +0.00    +0.063 C 
DOCKED: ATOM     28  C34 UNK     1      27.338  -8.702   9.153 -0.15 -0.00    -0.004 C 
DOCKED: ATOM     29  C35 UNK     1      32.776  -9.611   5.701 -0.15 +0.00    +0.123 C 
DOCKED: ATOM     30  C36 UNK     1      26.383  -9.320   8.468 -0.12 -0.00    -0.020 C 
DOCKED: ATOM     31  C37 UNK     1      31.310  -9.181   5.925 -0.10 +0.00    +0.064 C 
DOCKED: ATOM     32  C38 UNK     1      24.931  -8.861   8.525 -0.24 +0.00    +0.033 C 
DOCKED: ATOM     33  C39 UNK     1      30.400  -9.301   4.679 -0.06 +0.00    +0.130 C 
DOCKED: ATOM     34  C40 UNK     1      24.492  -7.954   7.328 -0.23 -0.00    +0.131 C 
DOCKED: ATOM     35  C41 UNK     1      24.012 -10.069   8.814 -0.16 +0.00    +0.017 C 
DOCKED: ATOM     36  C42 UNK     1      28.948  -8.999   5.095 -0.02 +0.00    +0.142 C 
DOCKED: ATOM     37  C43 UNK     1      24.784  -8.371   5.851 -0.12 -0.00    +0.040 C 
DOCKED: ATOM     38  C44 UNK     1      27.925  -9.168   3.973 -0.01 +0.00    +0.261 C 
DOCKED: ATOM     39  C45 UNK     1      26.246  -8.027   5.456 -0.06 +0.00    +0.134 C 
DOCKED: ATOM     40  C46 UNK     1      24.416  -9.839   5.548 -0.05 +0.00    +0.015 C 
DOCKED: ATOM     41  O16 UNK     1      26.649  -8.776   4.271 -0.01 -0.00    -0.316 OA
DOCKED: ATOM     42  O17 UNK     1      28.190  -9.675   2.849 -0.01 -0.00    -0.265 OA
DOCKED: ATOM     43  C47 UNK     1      26.427  -6.524   5.156 -0.10 +0.00    +0.040 C 
DOCKED: ENDROOT
DOCKED: BRANCH   1  44
DOCKED: ATOM     44  O1  UNK     1      41.133 -12.132  16.576 -0.03 +0.01    -0.349 OA
DOCKED: BRANCH  44  45
DOCKED: ATOM     45  C1  UNK     1      39.978 -13.007  16.555 -0.13 -0.02    +0.291 C 
DOCKED: ATOM     46  C2  UNK     1      40.298 -14.385  17.171 -0.10 -0.02    +0.206 C 
DOCKED: ATOM     47  C4  UNK     1      40.687 -14.272  18.660 -0.04 -0.01    +0.247 C 
DOCKED: ATOM     48  C8  UNK     1      39.588 -13.530  19.454 -0.07 -0.01    +0.179 C 
DOCKED: ATOM     49  C5  UNK     1      39.054 -12.242  18.775 -0.12 -0.02    +0.151 C 
DOCKED: ATOM     50  O2  UNK     1      38.897 -12.436  17.336 -0.13 +0.06    -0.351 OA
DOCKED: ATOM     51  C9  UNK     1      39.896 -10.991  19.086 -0.08 -0.00    +0.042 C 
DOCKED: BRANCH  46  52
DOCKED: ATOM     52  O3  UNK     1      41.317 -15.065  16.428 -0.01 +0.01    -0.388 OA
DOCKED: ATOM     53  H5  UNK     1      41.567 -14.535  15.667 +0.02 -0.01    +0.210 HD
DOCKED: ENDBRANCH  46  52
DOCKED: BRANCH  47  54
DOCKED: ATOM     54  N1  UNK     1      42.044 -13.645  18.849 -0.01 +0.00    -0.070 N 
DOCKED: ATOM     55  H11 UNK     1      42.399 -13.301  17.945 +0.01 -0.01    +0.274 HD
DOCKED: ATOM     56  H12 UNK     1      42.694 -14.350  19.231 +0.01 -0.00    +0.274 HD
DOCKED: ATOM     57  H13 UNK     1      41.968 -12.863  19.513 +0.01 -0.01    +0.274 HD
DOCKED: ENDBRANCH  47  54
DOCKED: BRANCH  48  58
DOCKED: ATOM     58  O4  UNK     1      38.488 -14.430  19.640 -0.04 +0.02    -0.391 OA
DOCKED: ATOM     59  H19 UNK     1      37.749 -14.159  19.090 -1.08 -0.03    +0.210 HD
DOCKED: ENDBRANCH  48  58
DOCKED: ENDBRANCH  44  45
DOCKED: ENDBRANCH   1  44
DOCKED: BRANCH   4  60
DOCKED: ATOM     60  O5  UNK     1      43.789 -10.075  14.521 -0.06 +0.00    -0.394 OA
DOCKED: ATOM     61  H21 UNK     1      44.418  -9.903  13.815 +0.06 -0.00    +0.210 HD
DOCKED: ENDBRANCH   4  60
DOCKED: BRANCH   6  62
DOCKED: ATOM     62  C15 UNK     1      45.524 -12.235  13.299 -0.02 -0.00    +0.182 C 
DOCKED: ATOM     63  O7  UNK     1      46.170 -11.170  13.502 +0.01 +0.00    -0.648 OA
DOCKED: ATOM     64  O8  UNK     1      46.154 -13.320  13.177 +0.00 +0.00    -0.648 OA
DOCKED: ENDBRANCH   6  62
DOCKED: BRANCH   8  65
DOCKED: ATOM     65  O6  UNK     1      43.293 -10.322  11.691 -0.18 +0.00    -0.394 OA
DOCKED: ATOM     66  H27 UNK     1      43.800  -9.856  12.360 +0.07 -0.00    +0.210 HD
DOCKED: ENDBRANCH   8  65
DOCKED: BRANCH  17  67
DOCKED: ATOM     67  O10 UNK     1      40.000  -9.904   8.587 -0.24 -0.01    -0.393 OA
DOCKED: ATOM     68  H36 UNK     1      40.937 -10.031   8.424 +0.04 +0.01    +0.210 HD
DOCKED: ENDBRANCH  17  67
DOCKED: BRANCH  19  69
DOCKED: ATOM     69  O11 UNK     1      37.349 -12.052  10.009 -0.23 -0.01    -0.393 OA
DOCKED: ATOM     70  H41 UNK     1      36.920 -11.792  10.827 +0.09 +0.01    +0.210 HD
DOCKED: ENDBRANCH  19  69
DOCKED: BRANCH  25  71
DOCKED: ATOM     71  O12 UNK     1      35.707  -8.686   6.405 -0.03 -0.00    -0.395 OA
DOCKED: ATOM     72  H51 UNK     1      35.464  -8.557   5.485 +0.04 +0.00    +0.210 HD
DOCKED: ENDBRANCH  25  71
DOCKED: BRANCH  29  73
DOCKED: ATOM     73  O13 UNK     1      33.402  -8.746   4.744 -0.02 -0.00    -0.395 OA
DOCKED: ATOM     74  H57 UNK     1      33.971  -8.122   5.201 +0.03 +0.00    +0.210 HD
DOCKED: ENDBRANCH  29  73
DOCKED: BRANCH  33  75
DOCKED: ATOM     75  O14 UNK     1      30.789  -8.362   3.665 -0.00 -0.00    -0.395 OA
DOCKED: ATOM     76  H66 UNK     1      31.746  -8.335   3.603 +0.02 +0.00    +0.210 HD
DOCKED: ENDBRANCH  33  75
DOCKED: BRANCH  34  77
DOCKED: ATOM     77  O15 UNK     1      23.091  -7.665   7.443 -0.13 +0.01    -0.394 OA
DOCKED: ATOM     78  H68 UNK     1      22.755  -8.037   8.262 +0.05 -0.00    +0.210 HD
DOCKED: ENDBRANCH  34  77
DOCKED: TORSDOF 14
DOCKED: TER
DOCKED: ENDMDL
________________________________________________________________________________


	BEGINNING GENETIC ALGORITHM DOCKING 3 of 10
Run: 3 Seed: 875585089 2034590093 [ Run 3 of 10 GA/GALS ]
Beginning LAMARCKIAN GENETIC ALGORITHM (LGA), with a maximum of 2500000 energy evaluations.

Final-Value: -17.015


	FINAL GENETIC ALGORITHM DOCKED STATE
	_______________________________________________


Detailed state:  trans -29.886 32.497 7.457 quatxyzw 0.706906 0.589849 -0.109907 -0.374543 center 31.688 -15.344 6.764 ntor 14 88.5466 -160.6527 44.3797 72.9684 119.6894 179.8886 -112.2457 -63.5602 119.3904 -122.7925 133.7896 1.0646 79.5737 43.6622
State:	-29.886  32.497   7.457   0.762  0.636 -0.119 -136.008     88.55 -160.65   44.38   72.97  119.69  179.89 -112.25  -63.56  119.39 -122.79  133.79    1.06   79.57   43.66

DOCKED: MODEL        3
DOCKED: USER    Run = 3
DOCKED: USER    DPF = nystatin.dpf
DOCKED: USER  
DOCKED: USER    Estimated Free Energy of Binding    =  -10.59 kcal/mol  [=(1)+(2)+(3)-(4)]
DOCKED: USER    Estimated Inhibition Constant, Ki   =   17.37 nM (nanomolar)  [Temperature = 298.15 K]
DOCKED: USER    
DOCKED: USER    (1) Final Intermolecular Energy     =  -10.45 kcal/mol
DOCKED: USER        vdW + Hbond + desolv Energy     =  -10.46 kcal/mol
DOCKED: USER        Electrostatic Energy            =   +0.00 kcal/mol
DOCKED: USER    (2) Final Total Internal Energy     =   -6.56 kcal/mol
DOCKED: USER    (3) Torsional Free Energy           =   +4.18 kcal/mol
DOCKED: USER    (4) Unbound System's Energy         =   -2.25 kcal/mol
DOCKED: USER    
DOCKED: USER    
DOCKED: USER    NEWDPF move nystatin.pdbqt
DOCKED: USER    NEWDPF about 31.688100 -15.344400 6.764500
DOCKED: USER    NEWDPF tran0 -29.885763 32.496735 7.457497
DOCKED: USER    NEWDPF quaternion0 0.706906 0.589849 -0.109907 -0.374543
DOCKED: USER    NEWDPF axisangle0 0.762402 0.636155 -0.118535 -136.007838
DOCKED: USER    NEWDPF quat0 0.762402 0.636155 -0.118535 -136.007838
DOCKED: USER    NEWDPF dihe0 88.55 -160.65 44.38 72.97 119.69 179.89 -112.25 -63.56 119.39 -122.79 133.79 1.06 79.57 43.66 
DOCKED: USER  keepresnum = 1 
DOCKED: USER  
DOCKED: REMARK  14 active torsions:
DOCKED: REMARK  status: ('A' for Active; 'I' for Inactive)
DOCKED: REMARK    1  A    between atoms: C1_1  and  O1_2 
DOCKED: REMARK    2  A    between atoms: O1_2  and  C3_5 
DOCKED: REMARK    3  A    between atoms: C2_3  and  O3_7 
DOCKED: REMARK    4  A    between atoms: C4_6  and  N1_13 
DOCKED: REMARK    5  A    between atoms: C8_12  and  O4_20 
DOCKED: REMARK    6  A    between atoms: C10_18  and  O5_23 
DOCKED: REMARK    7  A    between atoms: C12_22  and  C15_27 
DOCKED: REMARK    8  A    between atoms: C14_26  and  O6_30 
DOCKED: REMARK    9  A    between atoms: C23_40  and  O10_43 
DOCKED: REMARK   10  A    between atoms: C25_42  and  O11_47 
DOCKED: REMARK   11  A    between atoms: C31_52  and  O12_55 
DOCKED: REMARK   12  A    between atoms: C35_58  and  O13_61 
DOCKED: REMARK   13  A    between atoms: C39_64  and  O14_68 
DOCKED: REMARK   14  A    between atoms: C40_65  and  O15_71 
DOCKED: USER                              x       y       z     vdW  Elec       q    Type
DOCKED: USER                           _______ _______ _______ _____ _____    ______ ____
DOCKED: ROOT
DOCKED: ATOM      1  C3  UNK     1     -31.908  39.091   6.677 -0.01 +0.00    +0.150 C 
DOCKED: ATOM      2  C6  UNK     1     -31.589  38.636   5.241 -0.00 +0.00    +0.068 C 
DOCKED: ATOM      3  C7  UNK     1     -31.940  37.957   7.696 -0.01 +0.00    +0.005 C 
DOCKED: ATOM      4  C10 UNK     1     -32.160  39.593   4.172 -0.00 +0.00    +0.137 C 
DOCKED: ATOM      5  C11 UNK     1     -31.090  36.937   7.660 -0.02 -0.00    -0.002 C 
DOCKED: ATOM      6  C12 UNK     1     -31.607  39.329   2.733 +0.00 +0.00    +0.144 C 
DOCKED: ATOM      7  C13 UNK     1     -31.153  35.926   8.519 -0.04 -0.00    -0.000 C 
DOCKED: ATOM      8  C14 UNK     1     -31.721  37.878   2.170 -0.00 +0.00    +0.142 C 
DOCKED: ATOM      9  C16 UNK     1     -30.455  34.805   8.375 -0.07 +0.00    +0.000 C 
DOCKED: ATOM     10  C17 UNK     1     -30.455  37.045   2.483 -0.00 +0.00    +0.111 C 
DOCKED: ATOM     11  C18 UNK     1     -30.527  33.797   9.237 -0.10 +0.00    +0.000 C 
DOCKED: ATOM     12  C19 UNK     1     -30.647  35.547   2.326 -0.01 +0.00    +0.131 C 
DOCKED: ATOM     13  C20 UNK     1     -29.858  32.660   9.087 -0.14 -0.00    -0.000 C 
DOCKED: ATOM     14  C21 UNK     1     -30.534  34.771   3.635 -0.04 +0.00    +0.112 C 
DOCKED: ATOM     15  O9  UNK     1     -30.864  35.012   1.205 -0.00 -0.00    -0.298 OA
DOCKED: ATOM     16  C22 UNK     1     -29.906  31.674   9.976 -0.21 -0.00    -0.004 C 
DOCKED: ATOM     17  C23 UNK     1     -30.506  33.239   3.450 -0.08 +0.00    +0.153 C 
DOCKED: ATOM     18  C24 UNK     1     -29.154  30.583   9.892 -0.26 -0.00    -0.026 C 
DOCKED: ATOM     19  C25 UNK     1     -30.185  32.470   4.757 -0.14 -0.00    +0.147 C 
DOCKED: ATOM     20  C26 UNK     1     -29.191  29.515  10.975 -0.35 +0.00    +0.031 C 
DOCKED: ATOM     21  C27 UNK     1     -30.040  30.963   4.461 -0.19 -0.00    +0.037 C 
DOCKED: ATOM     22  C28 UNK     1     -29.392  28.094  10.426 -0.51 -0.00    +0.031 C 
DOCKED: ATOM     23  C29 UNK     1     -29.864  30.102   5.729 -0.24 -0.00    +0.034 C 
DOCKED: ATOM     24  C30 UNK     1     -29.357  27.050  11.533 -0.54 +0.00    -0.026 C 
DOCKED: ATOM     25  C31 UNK     1     -29.850  28.604   5.358 -0.26 +0.00    +0.120 C 
DOCKED: ATOM     26  C32 UNK     1     -28.382  26.152  11.609 -0.60 -0.00    -0.004 C 
DOCKED: ATOM     27  C33 UNK     1     -29.559  27.712   6.585 -0.27 +0.00    +0.063 C 
DOCKED: ATOM     28  C34 UNK     1     -28.300  25.258  12.588 -0.59 -0.00    -0.004 C 
DOCKED: ATOM     29  C35 UNK     1     -29.128  26.270   6.217 -0.32 -0.00    +0.123 C 
DOCKED: ATOM     30  C36 UNK     1     -27.311  24.376  12.676 -0.57 -0.00    -0.020 C 
DOCKED: ATOM     31  C37 UNK     1     -29.008  25.419   7.500 -0.39 -0.00    +0.064 C 
DOCKED: ATOM     32  C38 UNK     1     -27.207  23.402  13.843 -0.45 +0.00    +0.033 C 
DOCKED: ATOM     33  C39 UNK     1     -28.443  23.995   7.285 -0.14 -0.00    +0.130 C 
DOCKED: ATOM     34  C40 UNK     1     -27.770  21.973  13.545 -0.27 +0.00    +0.131 C 
DOCKED: ATOM     35  C41 UNK     1     -25.779  23.443  14.433 -0.43 +0.00    +0.017 C 
DOCKED: ATOM     36  C42 UNK     1     -28.228  23.334   8.659 -0.37 -0.00    +0.142 C 
DOCKED: ATOM     37  C43 UNK     1     -27.350  21.193  12.258 -0.22 +0.00    +0.040 C 
DOCKED: ATOM     38  C44 UNK     1     -27.589  21.948   8.597 -0.26 -0.00    +0.261 C 
DOCKED: ATOM     39  C45 UNK     1     -28.169  21.671  11.028 -0.24 +0.00    +0.134 C 
DOCKED: ATOM     40  C46 UNK     1     -25.829  21.212  12.004 -0.28 +0.00    +0.015 C 
DOCKED: ATOM     41  O16 UNK     1     -27.511  21.278   9.787 -0.12 -0.00    -0.316 OA
DOCKED: ATOM     42  O17 UNK     1     -27.109  21.440   7.547 -0.23 +0.00    -0.265 OA
DOCKED: ATOM     43  C47 UNK     1     -29.596  21.087  11.018 -0.24 +0.00    +0.040 C 
DOCKED: ENDROOT
DOCKED: BRANCH   1  44
DOCKED: ATOM     44  O1  UNK     1     -30.911  40.076   7.040 -0.01 -0.00    -0.349 OA
DOCKED: BRANCH  44  45
DOCKED: ATOM     45  C1  UNK     1     -30.925  40.646   8.373 -0.05 +0.00    +0.291 C 
DOCKED: ATOM     46  C2  UNK     1     -29.880  41.770   8.521 -0.16 +0.00    +0.206 C 
DOCKED: ATOM     47  C4  UNK     1     -30.174  42.955   7.577 -0.15 +0.00    +0.247 C 
DOCKED: ATOM     48  C8  UNK     1     -31.613  43.477   7.793 -0.20 +0.00    +0.179 C 
DOCKED: ATOM     49  C5  UNK     1     -32.697  42.372   7.881 -0.08 +0.00    +0.151 C 
DOCKED: ATOM     50  O2  UNK     1     -32.221  41.232   8.658 -0.02 -0.00    -0.351 OA
DOCKED: ATOM     51  C9  UNK     1     -33.237  41.931   6.507 -0.03 +0.00    +0.042 C 
DOCKED: BRANCH  46  52
DOCKED: ATOM     52  O3  UNK     1     -28.550  41.277   8.320 -0.07 -0.00    -0.388 OA
DOCKED: ATOM     53  H5  UNK     1     -28.574  40.519   7.731 +0.03 +0.00    +0.210 HD
DOCKED: ENDBRANCH  46  52
DOCKED: BRANCH  47  54
DOCKED: ATOM     54  N1  UNK     1     -29.903  42.616   6.134 -0.09 -0.00    -0.070 N 
DOCKED: ATOM     55  H11 UNK     1     -30.059  43.446   5.544 +0.04 +0.00    +0.274 HD
DOCKED: ATOM     56  H12 UNK     1     -30.536  41.857   5.840 +0.03 +0.00    +0.274 HD
DOCKED: ATOM     57  H13 UNK     1     -28.929  42.298   6.036 +0.04 +0.00    +0.274 HD
DOCKED: ENDBRANCH  47  54
DOCKED: BRANCH  48  58
DOCKED: ATOM     58  O4  UNK     1     -31.636  44.229   9.012 -0.22 +0.00    -0.391 OA
DOCKED: ATOM     59  H19 UNK     1     -31.954  43.676   9.730 +0.05 -0.00    +0.210 HD
DOCKED: ENDBRANCH  48  58
DOCKED: ENDBRANCH  44  45
DOCKED: ENDBRANCH   1  44
DOCKED: BRANCH   4  60
DOCKED: ATOM     60  O5  UNK     1     -33.594  39.512   4.213 +0.00 -0.00    -0.394 OA
DOCKED: ATOM     61  H21 UNK     1     -33.924  39.443   3.313 +0.00 +0.00    +0.210 HD
DOCKED: ENDBRANCH   4  60
DOCKED: BRANCH   6  62
DOCKED: ATOM     62  C15 UNK     1     -32.117  40.334   1.700 +0.00 +0.00    +0.182 C 
DOCKED: ATOM     63  O7  UNK     1     -33.346  40.346   1.413 +0.00 -0.00    -0.648 OA
DOCKED: ATOM     64  O8  UNK     1     -31.345  41.148   1.125 +0.00 -0.00    -0.648 OA
DOCKED: ENDBRANCH   6  62
DOCKED: BRANCH   8  65
DOCKED: ATOM     65  O6  UNK     1     -32.912  37.210   2.614 -0.00 -0.00    -0.394 OA
DOCKED: ATOM     66  H27 UNK     1     -33.586  37.861   2.823 +0.00 +0.00    +0.210 HD
DOCKED: ENDBRANCH   8  65
DOCKED: BRANCH  17  67
DOCKED: ATOM     67  O10 UNK     1     -31.791  32.820   2.960 -0.08 +0.00    -0.393 OA
DOCKED: ATOM     68  H36 UNK     1     -31.979  33.265   2.130 +0.02 +0.00    +0.210 HD
DOCKED: ENDBRANCH  17  67
DOCKED: BRANCH  19  69
DOCKED: ATOM     69  O11 UNK     1     -28.965  32.950   5.339 -0.03 -0.00    -0.393 OA
DOCKED: ATOM     70  H41 UNK     1     -29.145  33.310   6.210 +0.02 +0.00    +0.210 HD
DOCKED: ENDBRANCH  19  69
DOCKED: BRANCH  25  71
DOCKED: ATOM     71  O12 UNK     1     -31.129  28.256   4.804 -0.17 +0.00    -0.395 OA
DOCKED: ATOM     72  H51 UNK     1     -31.167  27.306   4.663 +0.05 +0.00    +0.210 HD
DOCKED: ENDBRANCH  25  71
DOCKED: BRANCH  29  73
DOCKED: ATOM     73  O13 UNK     1     -30.067  25.670   5.315 -0.11 -0.00    -0.395 OA
DOCKED: ATOM     74  H57 UNK     1     -30.427  24.873   5.710 +0.07 +0.00    +0.210 HD
DOCKED: ENDBRANCH  29  73
DOCKED: BRANCH  33  75
DOCKED: ATOM     75  O14 UNK     1     -29.358  23.187   6.528 -0.15 +0.00    -0.395 OA
DOCKED: ATOM     76  H66 UNK     1     -29.479  23.571   5.657 +0.06 -0.00    +0.210 HD
DOCKED: ENDBRANCH  33  75
DOCKED: BRANCH  34  77
DOCKED: ATOM     77  O15 UNK     1     -27.533  21.126  14.679 -0.09 -0.01    -0.394 OA
DOCKED: ATOM     78  H68 UNK     1     -28.025  20.307  14.574 +0.05 +0.00    +0.210 HD
DOCKED: ENDBRANCH  34  77
DOCKED: TORSDOF 14
DOCKED: TER
DOCKED: ENDMDL
________________________________________________________________________________


	BEGINNING GENETIC ALGORITHM DOCKING 4 of 10
Run: 4 Seed: 1761569296 924850456 [ Run 4 of 10 GA/GALS ]
Beginning LAMARCKIAN GENETIC ALGORITHM (LGA), with a maximum of 2500000 energy evaluations.

Final-Value: -18.242


	FINAL GENETIC ALGORITHM DOCKED STATE
	_______________________________________________


Detailed state:  trans 4.165 -35.665 9.909 quatxyzw 0.131940 0.025884 -0.966787 0.217358 center 31.688 -15.344 6.764 ntor 14 51.6604 -157.3544 36.4530 72.8177 110.8575 -2.5730 -80.7826 107.5388 71.8658 -92.2157 136.8964 -116.8405 0.0004 135.0388
State:	  4.165 -35.665   9.909   0.135  0.027 -0.990 154.892     51.66 -157.35   36.45   72.82  110.86   -2.57  -80.78  107.54   71.87  -92.22  136.90 -116.84    0.00  135.04

DOCKED: MODEL        4
DOCKED: USER    Run = 4
DOCKED: USER    DPF = nystatin.dpf
DOCKED: USER  
DOCKED: USER    Estimated Free Energy of Binding    =  -11.81 kcal/mol  [=(1)+(2)+(3)-(4)]
DOCKED: USER    Estimated Inhibition Constant, Ki   =    2.19 nM (nanomolar)  [Temperature = 298.15 K]
DOCKED: USER    
DOCKED: USER    (1) Final Intermolecular Energy     =  -11.75 kcal/mol
DOCKED: USER        vdW + Hbond + desolv Energy     =  -11.73 kcal/mol
DOCKED: USER        Electrostatic Energy            =   -0.02 kcal/mol
DOCKED: USER    (2) Final Total Internal Energy     =   -6.50 kcal/mol
DOCKED: USER    (3) Torsional Free Energy           =   +4.18 kcal/mol
DOCKED: USER    (4) Unbound System's Energy         =   -2.25 kcal/mol
DOCKED: USER    
DOCKED: USER    
DOCKED: USER    NEWDPF move nystatin.pdbqt
DOCKED: USER    NEWDPF about 31.688100 -15.344400 6.764500
DOCKED: USER    NEWDPF tran0 4.165218 -35.665493 9.909329
DOCKED: USER    NEWDPF quaternion0 0.131940 0.025884 -0.966787 0.217358
DOCKED: USER    NEWDPF axisangle0 0.135172 0.026518 -0.990467 154.892171
DOCKED: USER    NEWDPF quat0 0.135172 0.026518 -0.990467 154.892171
DOCKED: USER    NEWDPF dihe0 51.66 -157.35 36.45 72.82 110.86 -2.57 -80.78 107.54 71.87 -92.22 136.90 -116.84 0.00 135.04 
DOCKED: USER  keepresnum = 1 
DOCKED: USER  
DOCKED: REMARK  14 active torsions:
DOCKED: REMARK  status: ('A' for Active; 'I' for Inactive)
DOCKED: REMARK    1  A    between atoms: C1_1  and  O1_2 
DOCKED: REMARK    2  A    between atoms: O1_2  and  C3_5 
DOCKED: REMARK    3  A    between atoms: C2_3  and  O3_7 
DOCKED: REMARK    4  A    between atoms: C4_6  and  N1_13 
DOCKED: REMARK    5  A    between atoms: C8_12  and  O4_20 
DOCKED: REMARK    6  A    between atoms: C10_18  and  O5_23 
DOCKED: REMARK    7  A    between atoms: C12_22  and  C15_27 
DOCKED: REMARK    8  A    between atoms: C14_26  and  O6_30 
DOCKED: REMARK    9  A    between atoms: C23_40  and  O10_43 
DOCKED: REMARK   10  A    between atoms: C25_42  and  O11_47 
DOCKED: REMARK   11  A    between atoms: C31_52  and  O12_55 
DOCKED: REMARK   12  A    between atoms: C35_58  and  O13_61 
DOCKED: REMARK   13  A    between atoms: C39_64  and  O14_68 
DOCKED: REMARK   14  A    between atoms: C40_65  and  O15_71 
DOCKED: USER                              x       y       z     vdW  Elec       q    Type
DOCKED: USER                           _______ _______ _______ _____ _____    ______ ____
DOCKED: ROOT
DOCKED: ATOM      1  C3  UNK     1       2.064 -31.525   4.749 -0.18 +0.00    +0.150 C 
DOCKED: ATOM      2  C6  UNK     1       1.279 -31.012   5.971 -0.24 +0.00    +0.068 C 
DOCKED: ATOM      3  C7  UNK     1       3.168 -32.519   5.093 -0.23 +0.00    +0.005 C 
DOCKED: ATOM      4  C10 UNK     1       0.652 -29.621   5.734 -0.21 +0.00    +0.137 C 
DOCKED: ATOM      5  C11 UNK     1       3.034 -33.441   6.039 -0.28 -0.00    -0.002 C 
DOCKED: ATOM      6  C12 UNK     1      -0.387 -29.205   6.826 -0.32 +0.00    +0.144 C 
DOCKED: ATOM      7  C13 UNK     1       4.015 -34.272   6.370 -0.30 -0.00    -0.000 C 
DOCKED: ATOM      8  C14 UNK     1       0.069 -29.265   8.317 -0.39 +0.00    +0.142 C 
DOCKED: ATOM      9  C16 UNK     1       3.976 -35.054   7.443 -0.30 +0.00    +0.000 C 
DOCKED: ATOM     10  C17 UNK     1      -0.256 -30.636   8.958 -0.37 -0.00    +0.111 C 
DOCKED: ATOM     11  C18 UNK     1       4.964 -35.880   7.769 -0.37 +0.00    +0.000 C 
DOCKED: ATOM     12  C19 UNK     1       0.497 -30.907  10.248 -0.38 +0.00    +0.131 C 
DOCKED: ATOM     13  C20 UNK     1       4.949 -36.643   8.855 -0.42 -0.00    -0.000 C 
DOCKED: ATOM     14  C21 UNK     1       1.488 -32.064  10.151 -0.29 +0.00    +0.112 C 
DOCKED: ATOM     15  O9  UNK     1       0.293 -30.238  11.297 -0.33 -0.00    -0.298 OA
DOCKED: ATOM     16  C22 UNK     1       5.925 -37.495   9.149 -0.39 -0.00    -0.004 C 
DOCKED: ATOM     17  C23 UNK     1       2.087 -32.485  11.510 -0.20 +0.00    +0.153 C 
DOCKED: ATOM     18  C24 UNK     1       5.865 -38.342  10.170 -0.29 -0.00    -0.026 C 
DOCKED: ATOM     19  C25 UNK     1       2.929 -33.784  11.431 -0.16 +0.00    +0.147 C 
DOCKED: ATOM     20  C26 UNK     1       6.977 -39.350  10.422 -0.37 +0.00    +0.031 C 
DOCKED: ATOM     21  C27 UNK     1       3.375 -34.211  12.845 -0.13 +0.00    +0.037 C 
DOCKED: ATOM     22  C28 UNK     1       7.488 -39.346  11.872 -0.33 +0.00    +0.031 C 
DOCKED: ATOM     23  C29 UNK     1       4.340 -35.414  12.847 -0.17 +0.00    +0.034 C 
DOCKED: ATOM     24  C30 UNK     1       8.551 -40.411  12.100 -0.23 -0.00    -0.026 C 
DOCKED: ATOM     25  C31 UNK     1       4.833 -35.700  14.282 -0.10 +0.00    +0.120 C 
DOCKED: ATOM     26  C32 UNK     1       8.332 -41.451  12.896 -0.27 -0.00    -0.004 C 
DOCKED: ATOM     27  C33 UNK     1       5.711 -36.969  14.345 -0.19 +0.00    +0.063 C 
DOCKED: ATOM     28  C34 UNK     1       9.223 -42.420  13.079 -0.22 -0.00    -0.004 C 
DOCKED: ATOM     29  C35 UNK     1       5.887 -37.532  15.778 -0.16 +0.00    +0.123 C 
DOCKED: ATOM     30  C36 UNK     1       8.992 -43.471  13.857 -0.21 -0.00    -0.020 C 
DOCKED: ATOM     31  C37 UNK     1       6.894 -38.701  15.757 -0.24 +0.00    +0.064 C 
DOCKED: ATOM     32  C38 UNK     1      10.006 -44.598  14.001 -0.24 +0.00    +0.033 C 
DOCKED: ATOM     33  C39 UNK     1       7.052 -39.447  17.103 -0.20 +0.01    +0.130 C 
DOCKED: ATOM     34  C40 UNK     1      10.910 -44.498  15.275 -0.17 +0.00    +0.131 C 
DOCKED: ATOM     35  C41 UNK     1       9.308 -45.960  13.789 -0.29 +0.00    +0.017 C 
DOCKED: ATOM     36  C42 UNK     1       7.953 -40.677  16.887 -0.16 +0.01    +0.142 C 
DOCKED: ATOM     37  C43 UNK     1      10.287 -44.257  16.687 -0.16 +0.00    +0.040 C 
DOCKED: ATOM     38  C44 UNK     1       8.123 -41.558  18.123 -0.12 +0.02    +0.261 C 
DOCKED: ATOM     39  C45 UNK     1       9.971 -42.753  16.906 -0.11 +0.01    +0.134 C 
DOCKED: ATOM     40  C46 UNK     1       9.078 -45.168  16.984 -0.20 +0.00    +0.015 C 
DOCKED: ATOM     41  O16 UNK     1       9.025 -42.579  18.003 -0.10 -0.02    -0.316 OA
DOCKED: ATOM     42  O17 UNK     1       7.459 -41.415  19.186 -0.13 -0.03    -0.265 OA
DOCKED: ATOM     43  C47 UNK     1      11.237 -41.935  17.232 -0.05 +0.00    +0.040 C 
DOCKED: ENDROOT
DOCKED: BRANCH   1  44
DOCKED: ATOM     44  O1  UNK     1       1.101 -32.123   3.849 -0.05 -0.00    -0.349 OA
DOCKED: BRANCH  44  45
DOCKED: ATOM     45  C1  UNK     1       0.719 -33.510   4.032 -0.13 +0.00    +0.291 C 
DOCKED: ATOM     46  C2  UNK     1      -0.698 -33.634   4.627 -0.20 +0.00    +0.206 C 
DOCKED: ATOM     47  C4  UNK     1      -1.770 -33.046   3.686 -0.20 +0.00    +0.247 C 
DOCKED: ATOM     48  C8  UNK     1      -1.676 -33.693   2.285 -0.13 +0.00    +0.179 C 
DOCKED: ATOM     49  C5  UNK     1      -0.238 -33.805   1.717 -0.08 +0.00    +0.151 C 
DOCKED: ATOM     50  O2  UNK     1       0.706 -34.202   2.757 -0.08 -0.00    -0.351 OA
DOCKED: ATOM     51  C9  UNK     1       0.233 -32.536   0.983 -0.06 +0.00    +0.042 C 
DOCKED: BRANCH  46  52
DOCKED: ATOM     52  O3  UNK     1      -0.774 -33.033   5.925 -0.15 -0.00    -0.388 OA
DOCKED: ATOM     53  H5  UNK     1       0.107 -32.792   6.219 +0.08 +0.00    +0.210 HD
DOCKED: ENDBRANCH  46  52
DOCKED: BRANCH  47  54
DOCKED: ATOM     54  N1  UNK     1      -1.709 -31.541   3.621 -0.25 -0.00    -0.070 N 
DOCKED: ATOM     55  H11 UNK     1      -0.820 -31.246   3.191 +0.06 +0.00    +0.274 HD
DOCKED: ATOM     56  H12 UNK     1      -1.778 -31.158   4.576 +0.07 -0.00    +0.274 HD
DOCKED: ATOM     57  H13 UNK     1      -2.499 -31.192   3.061 +0.05 +0.00    +0.274 HD
DOCKED: ENDBRANCH  47  54
DOCKED: BRANCH  48  58
DOCKED: ATOM     58  O4  UNK     1      -2.234 -35.010   2.364 -0.06 -0.00    -0.391 OA
DOCKED: ATOM     59  H19 UNK     1      -1.537 -35.649   2.530 +0.04 -0.00    +0.210 HD
DOCKED: ENDBRANCH  48  58
DOCKED: ENDBRANCH  44  45
DOCKED: ENDBRANCH   1  44
DOCKED: BRANCH   4  60
DOCKED: ATOM     60  O5  UNK     1       1.715 -28.660   5.620 -0.10 -0.01    -0.394 OA
DOCKED: ATOM     61  H21 UNK     1       1.439 -27.844   6.046 +0.08 +0.00    +0.210 HD
DOCKED: ENDBRANCH   4  60
DOCKED: BRANCH   6  62
DOCKED: ATOM     62  C15 UNK     1      -1.060 -27.864   6.536 -0.27 +0.00    +0.182 C 
DOCKED: ATOM     63  O7  UNK     1      -0.351 -26.820   6.496 +0.02 -0.01    -0.648 OA
DOCKED: ATOM     64  O8  UNK     1      -2.301 -27.770   6.339 -0.12 -0.00    -0.648 OA
DOCKED: ENDBRANCH   6  62
DOCKED: BRANCH   8  65
DOCKED: ATOM     65  O6  UNK     1       1.454 -28.925   8.480 -0.16 -0.01    -0.394 OA
DOCKED: ATOM     66  H27 UNK     1       1.733 -28.360   7.755 +0.10 +0.00    +0.210 HD
DOCKED: ENDBRANCH   8  65
DOCKED: BRANCH  17  67
DOCKED: ATOM     67  O10 UNK     1       2.917 -31.414  11.989 -0.10 -0.01    -0.393 OA
DOCKED: ATOM     68  H36 UNK     1       2.432 -30.587  11.946 +0.11 +0.00    +0.210 HD
DOCKED: ENDBRANCH  17  67
DOCKED: BRANCH  19  69
DOCKED: ATOM     69  O11 UNK     1       2.165 -34.847  10.842 -0.11 -0.01    -0.393 OA
DOCKED: ATOM     70  H41 UNK     1       1.418 -35.055  11.406 +0.07 +0.00    +0.210 HD
DOCKED: ENDBRANCH  19  69
DOCKED: BRANCH  25  71
DOCKED: ATOM     71  O12 UNK     1       5.591 -34.568  14.740 -0.01 -0.00    -0.395 OA
DOCKED: ATOM     72  H51 UNK     1       6.337 -34.876  15.261 +0.02 +0.00    +0.210 HD
DOCKED: ENDBRANCH  25  71
DOCKED: BRANCH  29  73
DOCKED: ATOM     73  O13 UNK     1       6.337 -36.510  16.677 -0.01 -0.00    -0.395 OA
DOCKED: ATOM     74  H57 UNK     1       5.776 -35.736  16.590 +0.02 +0.00    +0.210 HD
DOCKED: ENDBRANCH  29  73
DOCKED: BRANCH  33  75
DOCKED: ATOM     75  O14 UNK     1       7.661 -38.603  18.092 -0.02 -0.01    -0.395 OA
DOCKED: ATOM     76  H66 UNK     1       7.635 -37.691  17.795 +0.02 +0.00    +0.210 HD
DOCKED: ENDBRANCH  33  75
DOCKED: BRANCH  34  77
DOCKED: ATOM     77  O15 UNK     1      11.754 -45.656  15.349 -0.05 -0.01    -0.394 OA
DOCKED: ATOM     78  H68 UNK     1      12.077 -45.758  16.248 +0.04 +0.00    +0.210 HD
DOCKED: ENDBRANCH  34  77
DOCKED: TORSDOF 14
DOCKED: TER
DOCKED: ENDMDL
________________________________________________________________________________


	BEGINNING GENETIC ALGORITHM DOCKING 5 of 10
Run: 5 Seed: 1431694225 1940845655 [ Run 5 of 10 GA/GALS ]
Beginning LAMARCKIAN GENETIC ALGORITHM (LGA), with a maximum of 2500000 energy evaluations.

Final-Value: -18.209


	FINAL GENETIC ALGORITHM DOCKED STATE
	_______________________________________________


Detailed state:  trans -5.248 -35.422 11.396 quatxyzw -0.113038 -0.286421 0.312735 -0.898544 center 31.688 -15.344 6.764 ntor 14 86.0811 -166.8588 56.4401 71.8018 110.9823 -145.6339 -76.6406 105.9396 94.6427 108.7099 155.5597 120.4221 40.8330 179.8479
State:	 -5.248 -35.422  11.396  -0.258 -0.653  0.713 -52.065     86.08 -166.86   56.44   71.80  110.98 -145.63  -76.64  105.94   94.64  108.71  155.56  120.42   40.83  179.85

DOCKED: MODEL        5
DOCKED: USER    Run = 5
DOCKED: USER    DPF = nystatin.dpf
DOCKED: USER  
DOCKED: USER    Estimated Free Energy of Binding    =  -11.78 kcal/mol  [=(1)+(2)+(3)-(4)]
DOCKED: USER    Estimated Inhibition Constant, Ki   =    2.32 nM (nanomolar)  [Temperature = 298.15 K]
DOCKED: USER    
DOCKED: USER    (1) Final Intermolecular Energy     =  -11.45 kcal/mol
DOCKED: USER        vdW + Hbond + desolv Energy     =  -11.44 kcal/mol
DOCKED: USER        Electrostatic Energy            =   -0.01 kcal/mol
DOCKED: USER    (2) Final Total Internal Energy     =   -6.76 kcal/mol
DOCKED: USER    (3) Torsional Free Energy           =   +4.18 kcal/mol
DOCKED: USER    (4) Unbound System's Energy         =   -2.25 kcal/mol
DOCKED: USER    
DOCKED: USER    
DOCKED: USER    NEWDPF move nystatin.pdbqt
DOCKED: USER    NEWDPF about 31.688100 -15.344400 6.764500
DOCKED: USER    NEWDPF tran0 -5.247833 -35.421927 11.395693
DOCKED: USER    NEWDPF quaternion0 -0.113038 -0.286421 0.312735 -0.898544
DOCKED: USER    NEWDPF axisangle0 -0.257560 -0.652615 0.712571 -52.065206
DOCKED: USER    NEWDPF quat0 -0.257560 -0.652615 0.712571 -52.065206
DOCKED: USER    NEWDPF dihe0 86.08 -166.86 56.44 71.80 110.98 -145.63 -76.64 105.94 94.64 108.71 155.56 120.42 40.83 179.85 
DOCKED: USER  keepresnum = 1 
DOCKED: USER  
DOCKED: REMARK  14 active torsions:
DOCKED: REMARK  status: ('A' for Active; 'I' for Inactive)
DOCKED: REMARK    1  A    between atoms: C1_1  and  O1_2 
DOCKED: REMARK    2  A    between atoms: O1_2  and  C3_5 
DOCKED: REMARK    3  A    between atoms: C2_3  and  O3_7 
DOCKED: REMARK    4  A    between atoms: C4_6  and  N1_13 
DOCKED: REMARK    5  A    between atoms: C8_12  and  O4_20 
DOCKED: REMARK    6  A    between atoms: C10_18  and  O5_23 
DOCKED: REMARK    7  A    between atoms: C12_22  and  C15_27 
DOCKED: REMARK    8  A    between atoms: C14_26  and  O6_30 
DOCKED: REMARK    9  A    between atoms: C23_40  and  O10_43 
DOCKED: REMARK   10  A    between atoms: C25_42  and  O11_47 
DOCKED: REMARK   11  A    between atoms: C31_52  and  O12_55 
DOCKED: REMARK   12  A    between atoms: C35_58  and  O13_61 
DOCKED: REMARK   13  A    between atoms: C39_64  and  O14_68 
DOCKED: REMARK   14  A    between atoms: C40_65  and  O15_71 
DOCKED: USER                              x       y       z     vdW  Elec       q    Type
DOCKED: USER                           _______ _______ _______ _____ _____    ______ ____
DOCKED: ROOT
DOCKED: ATOM      1  C3  UNK     1       1.582 -34.291  10.887 -0.21 +0.00    +0.150 C 
DOCKED: ATOM      2  C6  UNK     1       1.290 -34.089  12.385 -0.21 +0.00    +0.068 C 
DOCKED: ATOM      3  C7  UNK     1       0.422 -34.896  10.104 -0.24 +0.00    +0.005 C 
DOCKED: ATOM      4  C10 UNK     1       2.571 -34.098  13.248 -0.11 +0.00    +0.137 C 
DOCKED: ATOM      5  C11 UNK     1      -0.846 -34.578  10.340 -0.31 -0.00    -0.002 C 
DOCKED: ATOM      6  C12 UNK     1       2.345 -33.603  14.714 -0.10 +0.00    +0.144 C 
DOCKED: ATOM      7  C13 UNK     1      -1.856 -35.143   9.690 -0.33 -0.00    -0.000 C 
DOCKED: ATOM      8  C14 UNK     1       1.218 -34.294  15.544 -0.12 +0.00    +0.142 C 
DOCKED: ATOM      9  C16 UNK     1      -3.126 -34.997  10.050 -0.27 +0.00    +0.000 C 
DOCKED: ATOM     10  C17 UNK     1      -0.131 -33.549  15.404 -0.13 +0.01    +0.111 C 
DOCKED: ATOM     11  C18 UNK     1      -4.131 -35.570   9.397 -0.24 +0.00    +0.000 C 
DOCKED: ATOM     12  C19 UNK     1      -1.335 -34.363  15.843 -0.20 +0.01    +0.131 C 
DOCKED: ATOM     13  C20 UNK     1      -5.401 -35.455   9.765 -0.24 -0.00    -0.000 C 
DOCKED: ATOM     14  C21 UNK     1      -2.295 -34.704  14.708 -0.17 +0.00    +0.112 C 
DOCKED: ATOM     15  O9  UNK     1      -1.513 -34.702  17.044 -0.11 -0.01    -0.298 OA
DOCKED: ATOM     16  C22 UNK     1      -6.401 -36.000   9.081 -0.18 -0.00    -0.004 C 
DOCKED: ATOM     17  C23 UNK     1      -3.622 -35.335  15.183 -0.14 +0.00    +0.153 C 
DOCKED: ATOM     18  C24 UNK     1      -7.679 -35.796   9.377 -0.14 -0.00    -0.026 C 
DOCKED: ATOM     19  C25 UNK     1      -4.668 -35.487  14.050 -0.15 +0.00    +0.147 C 
DOCKED: ATOM     20  C26 UNK     1      -8.789 -36.382   8.518 -0.18 +0.00    +0.031 C 
DOCKED: ATOM     21  C27 UNK     1      -6.005 -35.992  14.630 -0.09 +0.00    +0.037 C 
DOCKED: ATOM     22  C28 UNK     1      -9.854 -37.139   9.328 -0.28 +0.00    +0.031 C 
DOCKED: ATOM     23  C29 UNK     1      -7.061 -36.311  13.551 -0.07 +0.00    +0.034 C 
DOCKED: ATOM     24  C30 UNK     1     -10.980 -37.652   8.442 -0.36 -0.00    -0.026 C 
DOCKED: ATOM     25  C31 UNK     1      -8.320 -36.923  14.202 -0.07 +0.00    +0.120 C 
DOCKED: ATOM     26  C32 UNK     1     -12.215 -37.177   8.545 -0.27 -0.00    -0.004 C 
DOCKED: ATOM     27  C33 UNK     1      -9.447 -37.150  13.170 -0.16 +0.00    +0.063 C 
DOCKED: ATOM     28  C34 UNK     1     -13.208 -37.572   7.755 -0.27 -0.00    -0.004 C 
DOCKED: ATOM     29  C35 UNK     1     -10.841 -37.365  13.810 -0.20 +0.00    +0.123 C 
DOCKED: ATOM     30  C36 UNK     1     -14.438 -37.078   7.845 -0.17 -0.00    -0.020 C 
DOCKED: ATOM     31  C37 UNK     1     -11.866 -37.731  12.714 -0.31 +0.00    +0.064 C 
DOCKED: ATOM     32  C38 UNK     1     -15.543 -37.503   6.886 -0.15 +0.00    +0.033 C 
DOCKED: ATOM     33  C39 UNK     1     -13.331 -37.830  13.201 -0.31 +0.00    +0.130 C 
DOCKED: ATOM     34  C40 UNK     1     -16.497 -38.608   7.448 -0.20 +0.00    +0.131 C 
DOCKED: ATOM     35  C41 UNK     1     -16.244 -36.253   6.308 -0.13 +0.00    +0.017 C 
DOCKED: ATOM     36  C42 UNK     1     -14.246 -38.035  11.981 -0.24 +0.00    +0.142 C 
DOCKED: ATOM     37  C43 UNK     1     -17.145 -38.471   8.863 -0.26 +0.00    +0.040 C 
DOCKED: ATOM     38  C44 UNK     1     -15.738 -38.063  12.311 -0.24 +0.01    +0.261 C 
DOCKED: ATOM     39  C45 UNK     1     -16.147 -38.897   9.974 -0.29 +0.00    +0.134 C 
DOCKED: ATOM     40  C46 UNK     1     -17.760 -37.079   9.119 -0.20 +0.00    +0.015 C 
DOCKED: ATOM     41  O16 UNK     1     -16.568 -38.380  11.271 -0.18 -0.01    -0.316 OA
DOCKED: ATOM     42  O17 UNK     1     -16.214 -37.772  13.442 -0.18 -0.01    -0.265 OA
DOCKED: ATOM     43  C47 UNK     1     -16.025 -40.431  10.087 -0.34 +0.00    +0.040 C 
DOCKED: ENDROOT
DOCKED: BRANCH   1  44
DOCKED: ATOM     44  O1  UNK     1       1.942 -32.996  10.348 -0.10 -0.00    -0.349 OA
DOCKED: BRANCH  44  45
DOCKED: ATOM     45  C1  UNK     1       1.204 -31.820  10.768 -0.23 +0.00    +0.291 C 
DOCKED: ATOM     46  C2  UNK     1       2.108 -30.571  10.814 -0.31 +0.00    +0.206 C 
DOCKED: ATOM     47  C4  UNK     1       2.668 -30.215   9.421 -0.30 +0.00    +0.247 C 
DOCKED: ATOM     48  C8  UNK     1       1.519 -30.056   8.398 -0.32 +0.00    +0.179 C 
DOCKED: ATOM     49  C5  UNK     1       0.443 -31.172   8.452 -0.34 +0.00    +0.151 C 
DOCKED: ATOM     50  O2  UNK     1       0.134 -31.535   9.832 -0.21 -0.00    -0.351 OA
DOCKED: ATOM     51  C9  UNK     1       0.803 -32.411   7.611 -0.27 +0.00    +0.042 C 
DOCKED: BRANCH  46  52
DOCKED: ATOM     52  O3  UNK     1       3.168 -30.727  11.765 -0.18 -0.01    -0.388 OA
DOCKED: ATOM     53  H5  UNK     1       3.358 -31.661  11.882 +0.09 +0.00    +0.210 HD
DOCKED: ENDBRANCH  46  52
DOCKED: BRANCH  47  54
DOCKED: ATOM     54  N1  UNK     1       3.709 -31.200   8.956 -0.37 -0.00    -0.070 N 
DOCKED: ATOM     55  H11 UNK     1       4.477 -31.247   9.641 +0.09 +0.00    +0.274 HD
DOCKED: ATOM     56  H12 UNK     1       4.077 -30.899   8.041 +0.09 +0.00    +0.274 HD
DOCKED: ATOM     57  H13 UNK     1       3.277 -32.129   8.855 +0.11 +0.00    +0.274 HD
DOCKED: ENDBRANCH  47  54
DOCKED: BRANCH  48  58
DOCKED: ATOM     58  O4  UNK     1       0.876 -28.799   8.642 -0.17 -0.01    -0.391 OA
DOCKED: ATOM     59  H19 UNK     1       0.044 -28.942   9.100 +0.10 +0.00    +0.210 HD
DOCKED: ENDBRANCH  48  58
DOCKED: ENDBRANCH  44  45
DOCKED: ENDBRANCH   1  44
DOCKED: BRANCH   4  60
DOCKED: ATOM     60  O5  UNK     1       3.129 -35.422  13.214 -0.06 -0.01    -0.394 OA
DOCKED: ATOM     61  H21 UNK     1       3.196 -35.750  14.115 +0.05 +0.00    +0.210 HD
DOCKED: ENDBRANCH   4  60
DOCKED: BRANCH   6  62
DOCKED: ATOM     62  C15 UNK     1       3.634 -33.539  15.532 -0.04 +0.00    +0.182 C 
DOCKED: ATOM     63  O7  UNK     1       4.451 -34.498  15.463 +0.02 -0.01    -0.648 OA
DOCKED: ATOM     64  O8  UNK     1       3.903 -32.557  16.276 +0.02 -0.01    -0.648 OA
DOCKED: ENDBRANCH   6  62
DOCKED: BRANCH   8  65
DOCKED: ATOM     65  O6  UNK     1       1.082 -35.689  15.228 -0.03 -0.01    -0.394 OA
DOCKED: ATOM     66  H27 UNK     1       1.912 -36.020  14.878 +0.05 +0.00    +0.210 HD
DOCKED: ENDBRANCH   8  65
DOCKED: BRANCH  17  67
DOCKED: ATOM     67  O10 UNK     1      -3.334 -36.630  15.737 -0.02 -0.01    -0.393 OA
DOCKED: ATOM     68  H36 UNK     1      -2.617 -36.557  16.370 +0.03 +0.00    +0.210 HD
DOCKED: ENDBRANCH  17  67
DOCKED: BRANCH  19  69
DOCKED: ATOM     69  O11 UNK     1      -4.889 -34.230  13.393 -0.17 -0.01    -0.393 OA
DOCKED: ATOM     70  H41 UNK     1      -5.174 -34.386  12.490 +0.06 +0.00    +0.210 HD
DOCKED: ENDBRANCH  19  69
DOCKED: BRANCH  25  71
DOCKED: ATOM     71  O12 UNK     1      -7.961 -38.178  14.804 -0.04 -0.00    -0.395 OA
DOCKED: ATOM     72  H51 UNK     1      -8.647 -38.826  14.622 +0.04 -0.00    +0.210 HD
DOCKED: ENDBRANCH  25  71
DOCKED: BRANCH  29  73
DOCKED: ATOM     73  O13 UNK     1     -10.795 -38.396  14.805 -0.12 +0.00    -0.395 OA
DOCKED: ATOM     74  H57 UNK     1     -10.055 -38.238  15.396 +0.04 -0.00    +0.210 HD
DOCKED: ENDBRANCH  29  73
DOCKED: BRANCH  33  75
DOCKED: ATOM     75  O14 UNK     1     -13.502 -38.942  14.094 -0.22 -0.01    -0.395 OA
DOCKED: ATOM     76  H66 UNK     1     -12.726 -39.029  14.651 +0.06 +0.00    +0.210 HD
DOCKED: ENDBRANCH  33  75
DOCKED: BRANCH  34  77
DOCKED: ATOM     77  O15 UNK     1     -17.545 -38.857   6.499 -0.11 -0.00    -0.394 OA
DOCKED: ATOM     78  H68 UNK     1     -17.178 -38.851   5.611 +0.05 +0.00    +0.210 HD
DOCKED: ENDBRANCH  34  77
DOCKED: TORSDOF 14
DOCKED: TER
DOCKED: ENDMDL
________________________________________________________________________________


	BEGINNING GENETIC ALGORITHM DOCKING 6 of 10
Run: 6 Seed: 1194844526 508127200 [ Run 6 of 10 GA/GALS ]
Beginning LAMARCKIAN GENETIC ALGORITHM (LGA), with a maximum of 2500000 energy evaluations.

Final-Value: -18.700


	FINAL GENETIC ALGORITHM DOCKED STATE
	_______________________________________________


Detailed state:  trans 3.279 -32.211 8.825 quatxyzw 0.247168 0.042084 0.243021 0.937058 center 31.688 -15.344 6.764 ntor 14 81.3571 180.0000 42.1892 64.3668 115.3835 22.1309 -131.0642 52.6200 87.8636 -142.2687 131.7719 3.5659 48.8546 180.0000
State:	  3.279 -32.211   8.825   0.708  0.121  0.696 40.874     81.36  180.00   42.19   64.37  115.38   22.13 -131.06   52.62   87.86 -142.27  131.77    3.57   48.85  180.00

DOCKED: MODEL        6
DOCKED: USER    Run = 6
DOCKED: USER    DPF = nystatin.dpf
DOCKED: USER  
DOCKED: USER    Estimated Free Energy of Binding    =  -12.27 kcal/mol  [=(1)+(2)+(3)-(4)]
DOCKED: USER    Estimated Inhibition Constant, Ki   =    1.01 nM (nanomolar)  [Temperature = 298.15 K]
DOCKED: USER    
DOCKED: USER    (1) Final Intermolecular Energy     =  -12.06 kcal/mol
DOCKED: USER        vdW + Hbond + desolv Energy     =  -12.05 kcal/mol
DOCKED: USER        Electrostatic Energy            =   -0.01 kcal/mol
DOCKED: USER    (2) Final Total Internal Energy     =   -6.64 kcal/mol
DOCKED: USER    (3) Torsional Free Energy           =   +4.18 kcal/mol
DOCKED: USER    (4) Unbound System's Energy         =   -2.25 kcal/mol
DOCKED: USER    
DOCKED: USER    
DOCKED: USER    NEWDPF move nystatin.pdbqt
DOCKED: USER    NEWDPF about 31.688100 -15.344400 6.764500
DOCKED: USER    NEWDPF tran0 3.279250 -32.211343 8.825399
DOCKED: USER    NEWDPF quaternion0 0.247168 0.042084 0.243021 0.937058
DOCKED: USER    NEWDPF axisangle0 0.707865 0.120525 0.695989 40.873538
DOCKED: USER    NEWDPF quat0 0.707865 0.120525 0.695989 40.873538
DOCKED: USER    NEWDPF dihe0 81.36 180.00 42.19 64.37 115.38 22.13 -131.06 52.62 87.86 -142.27 131.77 3.57 48.85 180.00 
DOCKED: USER  keepresnum = 1 
DOCKED: USER  
DOCKED: REMARK  14 active torsions:
DOCKED: REMARK  status: ('A' for Active; 'I' for Inactive)
DOCKED: REMARK    1  A    between atoms: C1_1  and  O1_2 
DOCKED: REMARK    2  A    between atoms: O1_2  and  C3_5 
DOCKED: REMARK    3  A    between atoms: C2_3  and  O3_7 
DOCKED: REMARK    4  A    between atoms: C4_6  and  N1_13 
DOCKED: REMARK    5  A    between atoms: C8_12  and  O4_20 
DOCKED: REMARK    6  A    between atoms: C10_18  and  O5_23 
DOCKED: REMARK    7  A    between atoms: C12_22  and  C15_27 
DOCKED: REMARK    8  A    between atoms: C14_26  and  O6_30 
DOCKED: REMARK    9  A    between atoms: C23_40  and  O10_43 
DOCKED: REMARK   10  A    between atoms: C25_42  and  O11_47 
DOCKED: REMARK   11  A    between atoms: C31_52  and  O12_55 
DOCKED: REMARK   12  A    between atoms: C35_58  and  O13_61 
DOCKED: REMARK   13  A    between atoms: C39_64  and  O14_68 
DOCKED: REMARK   14  A    between atoms: C40_65  and  O15_71 
DOCKED: USER                              x       y       z     vdW  Elec       q    Type
DOCKED: USER                           _______ _______ _______ _____ _____    ______ ____
DOCKED: ROOT
DOCKED: ATOM      1  C3  UNK     1       6.258 -38.205   6.987 -0.28 +0.00    +0.150 C 
DOCKED: ATOM      2  C6  UNK     1       6.718 -38.002   8.442 -0.30 +0.00    +0.068 C 
DOCKED: ATOM      3  C7  UNK     1       5.162 -37.244   6.541 -0.38 +0.00    +0.005 C 
DOCKED: ATOM      4  C10 UNK     1       7.305 -39.286   9.067 -0.26 +0.00    +0.137 C 
DOCKED: ATOM      5  C11 UNK     1       5.130 -35.970   6.914 -0.39 -0.00    -0.002 C 
DOCKED: ATOM      6  C12 UNK     1       8.046 -39.044  10.422 -0.17 +0.00    +0.144 C 
DOCKED: ATOM      7  C13 UNK     1       4.147 -35.149   6.565 -0.30 -0.00    -0.000 C 
DOCKED: ATOM      8  C14 UNK     1       7.270 -38.290  11.547 -0.23 +0.00    +0.142 C 
DOCKED: ATOM      9  C16 UNK     1       3.986 -33.941   7.092 -0.21 +0.00    +0.000 C 
DOCKED: ATOM     10  C17 UNK     1       7.517 -36.764  11.484 -0.13 +0.00    +0.111 C 
DOCKED: ATOM     11  C18 UNK     1       2.997 -33.127   6.740 -0.31 +0.00    +0.000 C 
DOCKED: ATOM     12  C19 UNK     1       6.509 -35.943  12.269 -0.12 +0.00    +0.131 C 
DOCKED: ATOM     13  C20 UNK     1       2.809 -31.929   7.282 -0.38 -0.00    -0.000 C 
DOCKED: ATOM     14  C21 UNK     1       5.631 -35.050  11.397 -0.16 +0.00    +0.112 C 
DOCKED: ATOM     15  O9  UNK     1       6.433 -35.997  13.526 -0.04 -0.00    -0.298 OA
DOCKED: ATOM     16  C22 UNK     1       1.840 -31.108   6.894 -0.33 -0.00    -0.004 C 
DOCKED: ATOM     17  C23 UNK     1       4.764 -34.056  12.200 -0.12 +0.00    +0.153 C 
DOCKED: ATOM     18  C24 UNK     1       1.715 -29.867   7.349 -0.36 -0.00    -0.026 C 
DOCKED: ATOM     19  C25 UNK     1       4.035 -33.020  11.307 -0.18 +0.00    +0.147 C 
DOCKED: ATOM     20  C26 UNK     1       0.632 -28.939   6.818 -0.32 +0.00    +0.031 C 
DOCKED: ATOM     21  C27 UNK     1       3.306 -31.984  12.188 -0.24 +0.00    +0.037 C 
DOCKED: ATOM     22  C28 UNK     1      -0.193 -28.264   7.926 -0.40 +0.00    +0.031 C 
DOCKED: ATOM     23  C29 UNK     1       2.433 -31.000  11.382 -0.37 +0.00    +0.034 C 
DOCKED: ATOM     24  C30 UNK     1      -1.219 -27.295   7.357 -0.33 -0.00    -0.026 C 
DOCKED: ATOM     25  C31 UNK     1       1.646 -30.079  12.340 -0.40 +0.00    +0.120 C 
DOCKED: ATOM     26  C32 UNK     1      -1.128 -25.987   7.565 -0.27 -0.00    -0.004 C 
DOCKED: ATOM     27  C33 UNK     1       0.847 -29.002  11.573 -0.51 +0.00    +0.063 C 
DOCKED: ATOM     28  C34 UNK     1      -1.982 -25.113   7.044 -0.17 -0.00    -0.004 C 
DOCKED: ATOM     29  C35 UNK     1       0.384 -27.821  12.463 -0.50 +0.00    +0.123 C 
DOCKED: ATOM     30  C36 UNK     1      -1.876 -23.803   7.234 -0.11 -0.00    -0.020 C 
DOCKED: ATOM     31  C37 UNK     1      -0.527 -26.880  11.646 -0.51 +0.00    +0.064 C 
DOCKED: ATOM     32  C38 UNK     1      -2.833 -22.818   6.574 -0.04 +0.00    +0.033 C 
DOCKED: ATOM     33  C39 UNK     1      -0.943 -25.582  12.377 -0.41 +0.00    +0.130 C 
DOCKED: ATOM     34  C40 UNK     1      -4.004 -22.339   7.494 -0.02 +0.00    +0.131 C 
DOCKED: ATOM     35  C41 UNK     1      -2.030 -21.693   5.881 -0.02 +0.00    +0.017 C 
DOCKED: ATOM     36  C42 UNK     1      -1.703 -24.678  11.389 -0.29 +0.00    +0.142 C 
DOCKED: ATOM     37  C43 UNK     1      -3.730 -21.814   8.940 -0.03 +0.00    +0.040 C 
DOCKED: ATOM     38  C44 UNK     1      -2.098 -23.316  11.958 -0.20 +0.00    +0.261 C 
DOCKED: ATOM     39  C45 UNK     1      -3.555 -22.994   9.934 -0.07 +0.00    +0.134 C 
DOCKED: ATOM     40  C46 UNK     1      -2.570 -20.800   9.011 -0.06 +0.00    +0.015 C 
DOCKED: ATOM     41  O16 UNK     1      -2.892 -22.546  11.154 -0.06 -0.00    -0.316 OA
DOCKED: ATOM     42  O17 UNK     1      -1.700 -22.876  13.071 -0.20 -0.01    -0.265 OA
DOCKED: ATOM     43  C47 UNK     1      -4.905 -23.627  10.328 -0.09 +0.00    +0.040 C 
DOCKED: ENDROOT
DOCKED: BRANCH   1  44
DOCKED: ATOM     44  O1  UNK     1       7.431 -38.066   6.150 -0.06 -0.00    -0.349 OA
DOCKED: BRANCH  44  45
DOCKED: ATOM     45  C1  UNK     1       8.397 -37.025   6.444 -0.11 +0.00    +0.291 C 
DOCKED: ATOM     46  C2  UNK     1       9.798 -37.383   5.910 -0.08 +0.00    +0.206 C 
DOCKED: ATOM     47  C4  UNK     1       9.811 -37.516   4.373 -0.05 +0.00    +0.247 C 
DOCKED: ATOM     48  C8  UNK     1       9.255 -36.233   3.712 -0.09 +0.00    +0.179 C 
DOCKED: ATOM     49  C5  UNK     1       7.954 -35.685   4.353 -0.13 +0.00    +0.151 C 
DOCKED: ATOM     50  O2  UNK     1       8.007 -35.780   5.809 -0.13 -0.00    -0.351 OA
DOCKED: ATOM     51  C9  UNK     1       6.674 -36.333   3.792 -0.17 +0.00    +0.042 C 
DOCKED: BRANCH  46  52
DOCKED: ATOM     52  O3  UNK     1      10.305 -38.572   6.529 -0.01 -0.00    -0.388 OA
DOCKED: ATOM     53  H5  UNK     1       9.575 -39.082   6.889 +0.03 +0.00    +0.210 HD
DOCKED: ENDBRANCH  46  52
DOCKED: BRANCH  47  54
DOCKED: ATOM     54  N1  UNK     1       9.092 -38.754   3.902 -0.03 -0.00    -0.070 N 
DOCKED: ATOM     55  H11 UNK     1       9.204 -38.857   2.882 +0.01 +0.00    +0.274 HD
DOCKED: ATOM     56  H12 UNK     1       8.091 -38.674   4.135 +0.04 +0.00    +0.274 HD
DOCKED: ATOM     57  H13 UNK     1       9.484 -39.578   4.379 +0.02 +0.00    +0.274 HD
DOCKED: ENDBRANCH  47  54
DOCKED: BRANCH  48  58
DOCKED: ATOM     58  O4  UNK     1      10.262 -35.217   3.796 -0.09 -0.00    -0.391 OA
DOCKED: ATOM     59  H19 UNK     1       9.946 -34.490   4.338 +0.03 +0.00    +0.210 HD
DOCKED: ENDBRANCH  48  58
DOCKED: ENDBRANCH  44  45
DOCKED: ENDBRANCH   1  44
DOCKED: BRANCH   4  60
DOCKED: ATOM     60  O5  UNK     1       6.244 -40.246   9.207 -0.13 -0.00    -0.394 OA
DOCKED: ATOM     61  H21 UNK     1       6.319 -40.664  10.068 +0.07 +0.00    +0.210 HD
DOCKED: ENDBRANCH   4  60
DOCKED: BRANCH   6  62
DOCKED: ATOM     62  C15 UNK     1       8.692 -40.309  10.988 -0.15 +0.00    +0.182 C 
DOCKED: ATOM     63  O7  UNK     1       7.950 -41.243  11.400 -0.08 -0.01    -0.648 OA
DOCKED: ATOM     64  O8  UNK     1       9.943 -40.444  11.057 +0.02 -0.01    -0.648 OA
DOCKED: ENDBRANCH   6  62
DOCKED: BRANCH   8  65
DOCKED: ATOM     65  O6  UNK     1       5.866 -38.596  11.542 -0.26 -0.00    -0.394 OA
DOCKED: ATOM     66  H27 UNK     1       5.714 -39.395  11.032 +0.05 +0.00    +0.210 HD
DOCKED: ENDBRANCH   8  65
DOCKED: BRANCH  17  67
DOCKED: ATOM     67  O10 UNK     1       3.790 -34.805  12.945 -0.04 -0.01    -0.393 OA
DOCKED: ATOM     68  H36 UNK     1       4.233 -35.469  13.479 +0.05 +0.00    +0.210 HD
DOCKED: ENDBRANCH  17  67
DOCKED: BRANCH  19  69
DOCKED: ATOM     69  O11 UNK     1       4.969 -32.337  10.459 -0.10 -0.01    -0.393 OA
DOCKED: ATOM     70  H41 UNK     1       5.776 -32.161  10.948 +0.06 +0.00    +0.210 HD
DOCKED: ENDBRANCH  19  69
DOCKED: BRANCH  25  71
DOCKED: ATOM     71  O12 UNK     1       0.742 -30.887  13.113 -0.20 -0.01    -0.395 OA
DOCKED: ATOM     72  H51 UNK     1       0.390 -30.364  13.838 +0.11 +0.01    +0.210 HD
DOCKED: ENDBRANCH  25  71
DOCKED: BRANCH  29  73
DOCKED: ATOM     73  O13 UNK     1      -0.313 -28.298  13.622 -0.32 -0.01    -0.395 OA
DOCKED: ATOM     74  H57 UNK     1      -0.411 -29.251  13.569 +0.09 +0.01    +0.210 HD
DOCKED: ENDBRANCH  29  73
DOCKED: BRANCH  33  75
DOCKED: ATOM     75  O14 UNK     1      -1.805 -25.870  13.489 -0.21 -0.01    -0.395 OA
DOCKED: ATOM     76  H66 UNK     1      -1.583 -26.730  13.852 +0.09 +0.00    +0.210 HD
DOCKED: ENDBRANCH  33  75
DOCKED: BRANCH  34  77
DOCKED: ATOM     77  O15 UNK     1      -4.778 -21.350   6.798 -0.00 -0.00    -0.394 OA
DOCKED: ATOM     78  H68 UNK     1      -5.692 -21.398   7.090 +0.00 +0.00    +0.210 HD
DOCKED: ENDBRANCH  34  77
DOCKED: TORSDOF 14
DOCKED: TER
DOCKED: ENDMDL
________________________________________________________________________________


	BEGINNING GENETIC ALGORITHM DOCKING 7 of 10
Run: 7 Seed: 383349966 822290580 [ Run 7 of 10 GA/GALS ]
Beginning LAMARCKIAN GENETIC ALGORITHM (LGA), with a maximum of 2500000 energy evaluations.

Final-Value: -18.614


	FINAL GENETIC ALGORITHM DOCKED STATE
	_______________________________________________


Detailed state:  trans 3.250 -32.271 8.798 quatxyzw 0.219041 0.042129 0.243495 0.943905 center 31.688 -15.344 6.764 ntor 14 80.4330 -153.1489 57.0033 74.0393 113.8370 -8.9993 -127.5335 -115.0629 63.0370 -58.6482 139.4702 -118.2706 -0.0627 114.2700
State:	  3.250 -32.271   8.798   0.663  0.128  0.737 38.564     80.43 -153.15   57.00   74.04  113.84   -9.00 -127.53 -115.06   63.04  -58.65  139.47 -118.27   -0.06  114.27

DOCKED: MODEL        7
DOCKED: USER    Run = 7
DOCKED: USER    DPF = nystatin.dpf
DOCKED: USER  
DOCKED: USER    Estimated Free Energy of Binding    =  -12.19 kcal/mol  [=(1)+(2)+(3)-(4)]
DOCKED: USER    Estimated Inhibition Constant, Ki   =    1.17 nM (nanomolar)  [Temperature = 298.15 K]
DOCKED: USER    
DOCKED: USER    (1) Final Intermolecular Energy     =  -12.01 kcal/mol
DOCKED: USER        vdW + Hbond + desolv Energy     =  -12.00 kcal/mol
DOCKED: USER        Electrostatic Energy            =   -0.01 kcal/mol
DOCKED: USER    (2) Final Total Internal Energy     =   -6.60 kcal/mol
DOCKED: USER    (3) Torsional Free Energy           =   +4.18 kcal/mol
DOCKED: USER    (4) Unbound System's Energy         =   -2.25 kcal/mol
DOCKED: USER    
DOCKED: USER    
DOCKED: USER    NEWDPF move nystatin.pdbqt
DOCKED: USER    NEWDPF about 31.688100 -15.344400 6.764500
DOCKED: USER    NEWDPF tran0 3.250091 -32.271002 8.798292
DOCKED: USER    NEWDPF quaternion0 0.219041 0.042129 0.243495 0.943905
DOCKED: USER    NEWDPF axisangle0 0.663324 0.127581 0.737377 38.563935
DOCKED: USER    NEWDPF quat0 0.663324 0.127581 0.737377 38.563935
DOCKED: USER    NEWDPF dihe0 80.43 -153.15 57.00 74.04 113.84 -9.00 -127.53 -115.06 63.04 -58.65 139.47 -118.27 -0.06 114.27 
DOCKED: USER  keepresnum = 1 
DOCKED: USER  
DOCKED: REMARK  14 active torsions:
DOCKED: REMARK  status: ('A' for Active; 'I' for Inactive)
DOCKED: REMARK    1  A    between atoms: C1_1  and  O1_2 
DOCKED: REMARK    2  A    between atoms: O1_2  and  C3_5 
DOCKED: REMARK    3  A    between atoms: C2_3  and  O3_7 
DOCKED: REMARK    4  A    between atoms: C4_6  and  N1_13 
DOCKED: REMARK    5  A    between atoms: C8_12  and  O4_20 
DOCKED: REMARK    6  A    between atoms: C10_18  and  O5_23 
DOCKED: REMARK    7  A    between atoms: C12_22  and  C15_27 
DOCKED: REMARK    8  A    between atoms: C14_26  and  O6_30 
DOCKED: REMARK    9  A    between atoms: C23_40  and  O10_43 
DOCKED: REMARK   10  A    between atoms: C25_42  and  O11_47 
DOCKED: REMARK   11  A    between atoms: C31_52  and  O12_55 
DOCKED: REMARK   12  A    between atoms: C35_58  and  O13_61 
DOCKED: REMARK   13  A    between atoms: C39_64  and  O14_68 
DOCKED: REMARK   14  A    between atoms: C40_65  and  O15_71 
DOCKED: USER                              x       y       z     vdW  Elec       q    Type
DOCKED: USER                           _______ _______ _______ _____ _____    ______ ____
DOCKED: ROOT
DOCKED: ATOM      1  C3  UNK     1       6.284 -38.139   6.667 -0.27 +0.00    +0.150 C 
DOCKED: ATOM      2  C6  UNK     1       6.724 -38.015   8.138 -0.29 +0.00    +0.068 C 
DOCKED: ATOM      3  C7  UNK     1       5.189 -37.160   6.261 -0.38 +0.00    +0.005 C 
DOCKED: ATOM      4  C10 UNK     1       7.309 -39.330   8.698 -0.25 +0.00    +0.137 C 
DOCKED: ATOM      5  C11 UNK     1       5.146 -35.908   6.705 -0.39 -0.00    -0.002 C 
DOCKED: ATOM      6  C12 UNK     1       8.031 -39.162  10.074 -0.18 +0.00    +0.144 C 
DOCKED: ATOM      7  C13 UNK     1       4.163 -35.073   6.388 -0.32 -0.00    -0.000 C 
DOCKED: ATOM      8  C14 UNK     1       7.236 -38.475  11.228 -0.25 +0.00    +0.142 C 
DOCKED: ATOM      9  C16 UNK     1       3.989 -33.897   6.981 -0.21 +0.00    +0.000 C 
DOCKED: ATOM     10  C17 UNK     1       7.476 -36.947  11.255 -0.14 +0.00    +0.111 C 
DOCKED: ATOM     11  C18 UNK     1       3.000 -33.069   6.661 -0.32 +0.00    +0.000 C 
DOCKED: ATOM     12  C19 UNK     1       6.453 -36.176  12.070 -0.15 +0.00    +0.131 C 
DOCKED: ATOM     13  C20 UNK     1       2.798 -31.905   7.267 -0.38 -0.00    -0.000 C 
DOCKED: ATOM     14  C21 UNK     1       5.582 -35.239  11.239 -0.17 +0.00    +0.112 C 
DOCKED: ATOM     15  O9  UNK     1       6.361 -36.301  13.322 -0.06 -0.00    -0.298 OA
DOCKED: ATOM     16  C22 UNK     1       1.831 -31.067   6.912 -0.33 -0.00    -0.004 C 
DOCKED: ATOM     17  C23 UNK     1       4.700 -34.296  12.084 -0.13 +0.00    +0.153 C 
DOCKED: ATOM     18  C24 UNK     1       1.693 -29.855   7.435 -0.37 -0.00    -0.026 C 
DOCKED: ATOM     19  C25 UNK     1       3.977 -33.215  11.241 -0.18 +0.00    +0.147 C 
DOCKED: ATOM     20  C26 UNK     1       0.612 -28.903   6.942 -0.32 +0.00    +0.031 C 
DOCKED: ATOM     21  C27 UNK     1       3.231 -32.233  12.168 -0.22 +0.00    +0.037 C 
DOCKED: ATOM     22  C28 UNK     1      -0.230 -28.295   8.075 -0.41 +0.00    +0.031 C 
DOCKED: ATOM     23  C29 UNK     1       2.364 -31.209  11.407 -0.35 +0.00    +0.034 C 
DOCKED: ATOM     24  C30 UNK     1      -1.254 -27.300   7.547 -0.33 -0.00    -0.026 C 
DOCKED: ATOM     25  C31 UNK     1       1.559 -30.347  12.404 -0.39 +0.00    +0.120 C 
DOCKED: ATOM     26  C32 UNK     1      -1.172 -26.006   7.829 -0.28 -0.00    -0.004 C 
DOCKED: ATOM     27  C33 UNK     1       0.765 -29.232  11.689 -0.52 +0.00    +0.063 C 
DOCKED: ATOM     28  C34 UNK     1      -2.024 -25.108   7.346 -0.19 -0.00    -0.004 C 
DOCKED: ATOM     29  C35 UNK     1       0.284 -28.105  12.637 -0.51 +0.00    +0.123 C 
DOCKED: ATOM     30  C36 UNK     1      -1.927 -23.810   7.611 -0.12 -0.00    -0.020 C 
DOCKED: ATOM     31  C37 UNK     1      -0.621 -27.124  11.862 -0.52 +0.00    +0.064 C 
DOCKED: ATOM     32  C38 UNK     1      -2.880 -22.793   6.994 -0.04 +0.00    +0.033 C 
DOCKED: ATOM     33  C39 UNK     1      -1.053 -25.870  12.658 -0.43 +0.00    +0.130 C 
DOCKED: ATOM     34  C40 UNK     1      -4.066 -22.372   7.924 -0.02 +0.00    +0.131 C 
DOCKED: ATOM     35  C41 UNK     1      -2.075 -21.628   6.377 -0.03 +0.00    +0.017 C 
DOCKED: ATOM     36  C42 UNK     1      -1.805 -24.916  11.712 -0.31 +0.00    +0.142 C 
DOCKED: ATOM     37  C43 UNK     1      -3.815 -21.928   9.400 -0.04 +0.00    +0.040 C 
DOCKED: ATOM     38  C44 UNK     1      -2.215 -23.590  12.352 -0.20 +0.00    +0.261 C 
DOCKED: ATOM     39  C45 UNK     1      -3.646 -23.161  10.329 -0.08 +0.00    +0.134 C 
DOCKED: ATOM     40  C46 UNK     1      -2.661 -20.914   9.544 -0.07 +0.00    +0.015 C 
DOCKED: ATOM     41  O16 UNK     1      -3.002 -22.780  11.581 -0.07 -0.00    -0.316 OA
DOCKED: ATOM     42  O17 UNK     1      -1.834 -23.211  13.493 -0.17 -0.01    -0.265 OA
DOCKED: ATOM     43  C47 UNK     1      -4.998 -23.821  10.669 -0.10 +0.00    +0.040 C 
DOCKED: ENDROOT
DOCKED: BRANCH   1  44
DOCKED: ATOM     44  O1  UNK     1       7.468 -37.947   5.855 -0.06 -0.00    -0.349 OA
DOCKED: BRANCH  44  45
DOCKED: ATOM     45  C1  UNK     1       7.634 -36.709   5.120 -0.12 +0.00    +0.291 C 
DOCKED: ATOM     46  C2  UNK     1       8.697 -35.801   5.772 -0.15 +0.00    +0.206 C 
DOCKED: ATOM     47  C4  UNK     1      10.093 -36.457   5.770 -0.11 +0.00    +0.247 C 
DOCKED: ATOM     48  C8  UNK     1      10.495 -36.874   4.336 -0.08 +0.00    +0.179 C 
DOCKED: ATOM     49  C5  UNK     1       9.383 -37.601   3.536 -0.04 +0.00    +0.151 C 
DOCKED: ATOM     50  O2  UNK     1       8.082 -36.981   3.767 -0.04 -0.00    -0.351 OA
DOCKED: ATOM     51  C9  UNK     1       9.337 -39.119   3.790 -0.02 +0.00    +0.042 C 
DOCKED: BRANCH  46  52
DOCKED: ATOM     52  O3  UNK     1       8.315 -35.419   7.099 -0.11 -0.00    -0.388 OA
DOCKED: ATOM     53  H5  UNK     1       7.657 -36.034   7.433 +0.05 +0.00    +0.210 HD
DOCKED: ENDBRANCH  46  52
DOCKED: BRANCH  47  54
DOCKED: ATOM     54  N1  UNK     1      10.185 -37.605   6.741 -0.07 -0.00    -0.070 N 
DOCKED: ATOM     55  H11 UNK     1       9.541 -38.357   6.456 +0.04 +0.00    +0.274 HD
DOCKED: ATOM     56  H12 UNK     1       9.934 -37.272   7.685 +0.05 +0.00    +0.274 HD
DOCKED: ATOM     57  H13 UNK     1      11.150 -37.962   6.757 +0.04 +0.00    +0.274 HD
DOCKED: ENDBRANCH  47  54
DOCKED: BRANCH  48  58
DOCKED: ATOM     58  O4  UNK     1      10.869 -35.692   3.617 -0.06 -0.00    -0.391 OA
DOCKED: ATOM     59  H19 UNK     1      10.098 -35.315   3.187 +0.03 +0.00    +0.210 HD
DOCKED: ENDBRANCH  48  58
DOCKED: ENDBRANCH  44  45
DOCKED: ENDBRANCH   1  44
DOCKED: BRANCH   4  60
DOCKED: ATOM     60  O5  UNK     1       6.251 -40.301   8.769 -0.18 -0.00    -0.394 OA
DOCKED: ATOM     61  H21 UNK     1       6.169 -40.600   9.678 +0.07 +0.00    +0.210 HD
DOCKED: ENDBRANCH   4  60
DOCKED: BRANCH   6  62
DOCKED: ATOM     62  C15 UNK     1       8.675 -40.453  10.577 -0.14 +0.00    +0.182 C 
DOCKED: ATOM     63  O7  UNK     1       7.945 -41.460  10.786 -0.06 -0.01    -0.648 OA
DOCKED: ATOM     64  O8  UNK     1       9.915 -40.540  10.791 +0.02 -0.01    -0.648 OA
DOCKED: ENDBRANCH   6  62
DOCKED: BRANCH   8  65
DOCKED: ATOM     65  O6  UNK     1       5.834 -38.786  11.187 -0.26 -0.00    -0.394 OA
DOCKED: ATOM     66  H27 UNK     1       5.707 -39.636  10.760 +0.06 -0.00    +0.210 HD
DOCKED: ENDBRANCH   8  65
DOCKED: BRANCH  17  67
DOCKED: ATOM     67  O10 UNK     1       3.720 -35.090  12.773 -0.05 -0.01    -0.393 OA
DOCKED: ATOM     68  H36 UNK     1       4.157 -35.795  13.255 +0.05 +0.00    +0.210 HD
DOCKED: ENDBRANCH  17  67
DOCKED: BRANCH  19  69
DOCKED: ATOM     69  O11 UNK     1       4.919 -32.480  10.445 -0.08 -0.01    -0.393 OA
DOCKED: ATOM     70  H41 UNK     1       5.455 -31.925  11.015 +0.07 +0.00    +0.210 HD
DOCKED: ENDBRANCH  19  69
DOCKED: BRANCH  25  71
DOCKED: ATOM     71  O12 UNK     1       0.649 -31.201  13.119 -0.19 -0.01    -0.395 OA
DOCKED: ATOM     72  H51 UNK     1       0.244 -30.704  13.834 +0.13 +0.01    +0.210 HD
DOCKED: ENDBRANCH  25  71
DOCKED: BRANCH  29  73
DOCKED: ATOM     73  O13 UNK     1      -0.426 -28.649  13.758 -0.18 -0.01    -0.395 OA
DOCKED: ATOM     74  H57 UNK     1      -0.818 -27.935  14.266 +0.07 +0.01    +0.210 HD
DOCKED: ENDBRANCH  29  73
DOCKED: BRANCH  33  75
DOCKED: ATOM     75  O14 UNK     1      -1.929 -26.224  13.741 -0.24 -0.01    -0.395 OA
DOCKED: ATOM     76  H66 UNK     1      -1.991 -27.179  13.803 +0.07 +0.00    +0.210 HD
DOCKED: ENDBRANCH  33  75
DOCKED: BRANCH  34  77
DOCKED: ATOM     77  O15 UNK     1      -4.836 -21.349   7.274 -0.00 -0.00    -0.394 OA
DOCKED: ATOM     78  H68 UNK     1      -4.924 -20.595   7.862 +0.00 +0.00    +0.210 HD
DOCKED: ENDBRANCH  34  77
DOCKED: TORSDOF 14
DOCKED: TER
DOCKED: ENDMDL
________________________________________________________________________________


	BEGINNING GENETIC ALGORITHM DOCKING 8 of 10
Run: 8 Seed: 847966998 548787987 [ Run 8 of 10 GA/GALS ]
Beginning LAMARCKIAN GENETIC ALGORITHM (LGA), with a maximum of 2500000 energy evaluations.

Final-Value: -18.283


	FINAL GENETIC ALGORITHM DOCKED STATE
	_______________________________________________


Detailed state:  trans 2.719 -31.340 11.272 quatxyzw 0.701726 -0.618198 -0.277601 -0.219885 center 31.688 -15.344 6.764 ntor 14 106.2409 -176.6872 51.9049 64.9874 115.6326 -163.1657 -129.8394 110.2636 96.3135 -119.4509 148.4232 137.9365 15.4752 177.0977
State:	  2.719 -31.340  11.272   0.719 -0.634 -0.285 -154.595    106.24 -176.69   51.90   64.99  115.63 -163.17 -129.84  110.26   96.31 -119.45  148.42  137.94   15.48  177.10

DOCKED: MODEL        8
DOCKED: USER    Run = 8
DOCKED: USER    DPF = nystatin.dpf
DOCKED: USER  
DOCKED: USER    Estimated Free Energy of Binding    =  -11.85 kcal/mol  [=(1)+(2)+(3)-(4)]
DOCKED: USER    Estimated Inhibition Constant, Ki   =    2.05 nM (nanomolar)  [Temperature = 298.15 K]
DOCKED: USER    
DOCKED: USER    (1) Final Intermolecular Energy     =  -11.89 kcal/mol
DOCKED: USER        vdW + Hbond + desolv Energy     =  -11.91 kcal/mol
DOCKED: USER        Electrostatic Energy            =   +0.01 kcal/mol
DOCKED: USER    (2) Final Total Internal Energy     =   -6.39 kcal/mol
DOCKED: USER    (3) Torsional Free Energy           =   +4.18 kcal/mol
DOCKED: USER    (4) Unbound System's Energy         =   -2.25 kcal/mol
DOCKED: USER    
DOCKED: USER    
DOCKED: USER    NEWDPF move nystatin.pdbqt
DOCKED: USER    NEWDPF about 31.688100 -15.344400 6.764500
DOCKED: USER    NEWDPF tran0 2.718883 -31.340031 11.271683
DOCKED: USER    NEWDPF quaternion0 0.701726 -0.618198 -0.277601 -0.219885
DOCKED: USER    NEWDPF axisangle0 0.719331 -0.633707 -0.284565 -154.595414
DOCKED: USER    NEWDPF quat0 0.719331 -0.633707 -0.284565 -154.595414
DOCKED: USER    NEWDPF dihe0 106.24 -176.69 51.90 64.99 115.63 -163.17 -129.84 110.26 96.31 -119.45 148.42 137.94 15.48 177.10 
DOCKED: USER  keepresnum = 1 
DOCKED: USER  
DOCKED: REMARK  14 active torsions:
DOCKED: REMARK  status: ('A' for Active; 'I' for Inactive)
DOCKED: REMARK    1  A    between atoms: C1_1  and  O1_2 
DOCKED: REMARK    2  A    between atoms: O1_2  and  C3_5 
DOCKED: REMARK    3  A    between atoms: C2_3  and  O3_7 
DOCKED: REMARK    4  A    between atoms: C4_6  and  N1_13 
DOCKED: REMARK    5  A    between atoms: C8_12  and  O4_20 
DOCKED: REMARK    6  A    between atoms: C10_18  and  O5_23 
DOCKED: REMARK    7  A    between atoms: C12_22  and  C15_27 
DOCKED: REMARK    8  A    between atoms: C14_26  and  O6_30 
DOCKED: REMARK    9  A    between atoms: C23_40  and  O10_43 
DOCKED: REMARK   10  A    between atoms: C25_42  and  O11_47 
DOCKED: REMARK   11  A    between atoms: C31_52  and  O12_55 
DOCKED: REMARK   12  A    between atoms: C35_58  and  O13_61 
DOCKED: REMARK   13  A    between atoms: C39_64  and  O14_68 
DOCKED: REMARK   14  A    between atoms: C40_65  and  O15_71 
DOCKED: USER                              x       y       z     vdW  Elec       q    Type
DOCKED: USER                           _______ _______ _______ _____ _____    ______ ____
DOCKED: ROOT
DOCKED: ATOM      1  C3  UNK     1       7.744 -35.975  12.471 -0.07 +0.00    +0.150 C 
DOCKED: ATOM      2  C6  UNK     1       7.076 -36.488  11.182 -0.16 +0.00    +0.068 C 
DOCKED: ATOM      3  C7  UNK     1       7.303 -34.577  12.886 -0.07 +0.00    +0.005 C 
DOCKED: ATOM      4  C10 UNK     1       7.933 -37.540  10.445 -0.13 +0.00    +0.137 C 
DOCKED: ATOM      5  C11 UNK     1       6.052 -34.151  12.754 -0.11 -0.00    -0.002 C 
DOCKED: ATOM      6  C12 UNK     1       7.166 -38.293   9.310 -0.24 +0.00    +0.144 C 
DOCKED: ATOM      7  C13 UNK     1       5.681 -32.915  13.070 -0.15 -0.00    -0.000 C 
DOCKED: ATOM      8  C14 UNK     1       6.451 -37.429   8.224 -0.28 +0.00    +0.142 C 
DOCKED: ATOM      9  C16 UNK     1       4.495 -32.409  12.754 -0.20 +0.00    +0.000 C 
DOCKED: ATOM     10  C17 UNK     1       4.982 -37.132   8.609 -0.32 +0.00    +0.111 C 
DOCKED: ATOM     11  C18 UNK     1       4.134 -31.170  13.070 -0.32 +0.00    +0.000 C 
DOCKED: ATOM     12  C19 UNK     1       4.357 -35.992   7.824 -0.35 +0.00    +0.131 C 
DOCKED: ATOM     13  C20 UNK     1       2.963 -30.642  12.733 -0.39 -0.00    -0.000 C 
DOCKED: ATOM     14  C21 UNK     1       4.008 -34.776   8.676 -0.25 +0.00    +0.112 C 
DOCKED: ATOM     15  O9  UNK     1       4.138 -36.072   6.585 -0.12 -0.00    -0.298 OA
DOCKED: ATOM     16  C22 UNK     1       2.597 -29.416  13.089 -0.43 -0.00    -0.004 C 
DOCKED: ATOM     17  C23 UNK     1       3.175 -33.712   7.930 -0.17 +0.00    +0.153 C 
DOCKED: ATOM     18  C24 UNK     1       1.387 -28.923  12.855 -0.51 -0.00    -0.026 C 
DOCKED: ATOM     19  C25 UNK     1       2.654 -32.583   8.856 -0.28 +0.00    +0.147 C 
DOCKED: ATOM     20  C26 UNK     1       0.991 -27.539  13.348 -0.55 +0.00    +0.031 C 
DOCKED: ATOM     21  C27 UNK     1       1.721 -31.641   8.067 -0.32 +0.00    +0.037 C 
DOCKED: ATOM     22  C28 UNK     1       0.368 -26.655  12.256 -0.55 +0.00    +0.031 C 
DOCKED: ATOM     23  C29 UNK     1       1.272 -30.405   8.873 -0.39 +0.00    +0.034 C 
DOCKED: ATOM     24  C30 UNK     1      -0.074 -25.306  12.804 -0.45 -0.00    -0.026 C 
DOCKED: ATOM     25  C31 UNK     1       0.446 -29.456   7.978 -0.36 +0.00    +0.120 C 
DOCKED: ATOM     26  C32 UNK     1      -1.356 -24.966  12.860 -0.43 -0.00    -0.004 C 
DOCKED: ATOM     27  C33 UNK     1      -0.121 -28.262   8.777 -0.43 +0.00    +0.063 C 
DOCKED: ATOM     28  C34 UNK     1      -1.776 -23.815  13.374 -0.24 -0.00    -0.004 C 
DOCKED: ATOM     29  C35 UNK     1      -1.272 -27.520   8.052 -0.23 +0.00    +0.123 C 
DOCKED: ATOM     30  C36 UNK     1      -3.060 -23.488  13.450 -0.24 -0.00    -0.020 C 
DOCKED: ATOM     31  C37 UNK     1      -1.667 -26.262   8.855 -0.26 +0.00    +0.064 C 
DOCKED: ATOM     32  C38 UNK     1      -3.518 -22.188  14.101 -0.19 +0.00    +0.033 C 
DOCKED: ATOM     33  C39 UNK     1      -2.904 -25.507   8.314 -0.18 +0.00    +0.130 C 
DOCKED: ATOM     34  C40 UNK     1      -3.809 -21.027  13.093 -0.10 +0.00    +0.131 C 
DOCKED: ATOM     35  C41 UNK     1      -4.643 -22.481  15.119 -0.11 -0.00    +0.017 C 
DOCKED: ATOM     36  C42 UNK     1      -3.272 -24.385   9.301 -0.14 +0.00    +0.142 C 
DOCKED: ATOM     37  C43 UNK     1      -4.713 -21.256  11.840 -0.05 +0.00    +0.040 C 
DOCKED: ATOM     38  C44 UNK     1      -4.536 -23.610   8.932 -0.05 +0.00    +0.261 C 
DOCKED: ATOM     39  C45 UNK     1      -3.911 -21.927  10.692 -0.05 +0.00    +0.134 C 
DOCKED: ATOM     40  C46 UNK     1      -6.025 -22.000  12.162 -0.02 +0.00    +0.015 C 
DOCKED: ATOM     41  O16 UNK     1      -4.812 -22.521   9.712 -0.01 -0.00    -0.316 OA
DOCKED: ATOM     42  O17 UNK     1      -5.323 -23.949   8.007 -0.04 -0.00    -0.265 OA
DOCKED: ATOM     43  C47 UNK     1      -3.000 -20.923   9.957 -0.07 +0.00    +0.040 C 
DOCKED: ENDROOT
DOCKED: BRANCH   1  44
DOCKED: ATOM     44  O1  UNK     1       7.446 -36.935  13.513 -0.03 -0.00    -0.349 OA
DOCKED: BRANCH  44  45
DOCKED: ATOM     45  C1  UNK     1       6.101 -37.465  13.629 -0.18 +0.00    +0.291 C 
DOCKED: ATOM     46  C2  UNK     1       6.084 -39.002  13.503 -0.31 +0.01    +0.206 C 
DOCKED: ATOM     47  C4  UNK     1       6.880 -39.681  14.637 -0.15 +0.01    +0.247 C 
DOCKED: ATOM     48  C8  UNK     1       6.364 -39.212  16.017 -0.28 +0.01    +0.179 C 
DOCKED: ATOM     49  C5  UNK     1       6.142 -37.682  16.142 -0.14 +0.00    +0.151 C 
DOCKED: ATOM     50  O2  UNK     1       5.540 -37.140  14.927 -0.08 -0.01    -0.351 OA
DOCKED: ATOM     51  C9  UNK     1       7.414 -36.908  16.535 -0.05 +0.00    +0.042 C 
DOCKED: BRANCH  46  52
DOCKED: ATOM     52  O3  UNK     1       6.561 -39.426  12.221 -0.29 -0.01    -0.388 OA
DOCKED: ATOM     53  H5  UNK     1       7.365 -38.947  12.003 +0.07 +0.00    +0.210 HD
DOCKED: ENDBRANCH  46  52
DOCKED: BRANCH  47  54
DOCKED: ATOM     54  N1  UNK     1       8.366 -39.482  14.489 -0.15 -0.00    -0.070 N 
DOCKED: ATOM     55  H11 UNK     1       8.632 -39.564  13.497 +0.07 +0.01    +0.274 HD
DOCKED: ATOM     56  H12 UNK     1       8.861 -40.198  15.042 +0.06 +0.01    +0.274 HD
DOCKED: ATOM     57  H13 UNK     1       8.621 -38.549  14.841 +0.05 +0.01    +0.274 HD
DOCKED: ENDBRANCH  47  54
DOCKED: BRANCH  48  58
DOCKED: ATOM     58  O4  UNK     1       5.118 -39.871  16.275 -0.20 -0.03    -0.391 OA
DOCKED: ATOM     59  H19 UNK     1       4.406 -39.227  16.284 +0.04 +0.01    +0.210 HD
DOCKED: ENDBRANCH  48  58
DOCKED: ENDBRANCH  44  45
DOCKED: ENDBRANCH   1  44
DOCKED: BRANCH   4  60
DOCKED: ATOM     60  O5  UNK     1       9.115 -36.892   9.947 -0.02 -0.00    -0.394 OA
DOCKED: ATOM     61  H21 UNK     1       9.193 -37.074   9.007 +0.04 +0.00    +0.210 HD
DOCKED: ENDBRANCH   4  60
DOCKED: BRANCH   6  62
DOCKED: ATOM     62  C15 UNK     1       7.999 -39.387   8.644 -0.15 +0.00    +0.182 C 
DOCKED: ATOM     63  O7  UNK     1       9.152 -39.103   8.217 +0.02 -0.01    -0.648 OA
DOCKED: ATOM     64  O8  UNK     1       7.567 -40.563   8.506 -0.05 -0.01    -0.648 OA
DOCKED: ENDBRANCH   6  62
DOCKED: BRANCH   8  65
DOCKED: ATOM     65  O6  UNK     1       7.170 -36.221   7.926 -0.10 -0.00    -0.394 OA
DOCKED: ATOM     66  H27 UNK     1       8.074 -36.302   8.236 +0.05 +0.00    +0.210 HD
DOCKED: ENDBRANCH   8  65
DOCKED: BRANCH  17  67
DOCKED: ATOM     67  O10 UNK     1       3.995 -33.136   6.900 -0.11 +0.00    -0.393 OA
DOCKED: ATOM     68  H36 UNK     1       4.343 -33.832   6.338 +0.05 -0.00    +0.210 HD
DOCKED: ENDBRANCH  17  67
DOCKED: BRANCH  19  69
DOCKED: ATOM     69  O11 UNK     1       1.930 -33.133   9.966 -0.09 -0.00    -0.393 OA
DOCKED: ATOM     70  H41 UNK     1       2.196 -32.688  10.774 +0.09 +0.00    +0.210 HD
DOCKED: ENDBRANCH  19  69
DOCKED: BRANCH  25  71
DOCKED: ATOM     71  O12 UNK     1       1.292 -28.969   6.922 -0.13 -0.01    -0.395 OA
DOCKED: ATOM     72  H51 UNK     1       0.753 -28.522   6.264 +0.09 +0.00    +0.210 HD
DOCKED: ENDBRANCH  25  71
DOCKED: BRANCH  29  73
DOCKED: ATOM     73  O13 UNK     1      -0.885 -27.153   6.720 -0.10 -0.00    -0.395 OA
DOCKED: ATOM     74  H57 UNK     1      -0.561 -27.928   6.255 +0.08 +0.00    +0.210 HD
DOCKED: ENDBRANCH  29  73
DOCKED: BRANCH  33  75
DOCKED: ATOM     75  O14 UNK     1      -2.628 -24.917   7.034 -0.05 -0.00    -0.395 OA
DOCKED: ATOM     76  H66 UNK     1      -2.094 -25.519   6.512 +0.06 +0.00    +0.210 HD
DOCKED: ENDBRANCH  33  75
DOCKED: BRANCH  34  77
DOCKED: ATOM     77  O15 UNK     1      -4.318 -19.894  13.811 -0.02 +0.00    -0.394 OA
DOCKED: ATOM     78  H68 UNK     1      -4.383 -19.142  13.217 +0.03 -0.00    +0.210 HD
DOCKED: ENDBRANCH  34  77
DOCKED: TORSDOF 14
DOCKED: TER
DOCKED: ENDMDL
________________________________________________________________________________


	BEGINNING GENETIC ALGORITHM DOCKING 9 of 10
Run: 9 Seed: 1172349706 946077380 [ Run 9 of 10 GA/GALS ]
Beginning LAMARCKIAN GENETIC ALGORITHM (LGA), with a maximum of 2500000 energy evaluations.

Final-Value: -19.154


	FINAL GENETIC ALGORITHM DOCKED STATE
	_______________________________________________


Detailed state:  trans 3.050 -31.387 10.242 quatxyzw 0.137955 -0.122567 0.193909 0.963507 center 31.688 -15.344 6.764 ntor 14 43.9068 -157.8392 53.9255 73.6145 116.0226 -177.7354 -104.0633 -102.6530 -115.7639 155.5256 149.2416 3.9952 -48.3328 -53.0964
State:	  3.050 -31.387  10.242   0.515 -0.458  0.724 31.053     43.91 -157.84   53.93   73.61  116.02 -177.74 -104.06 -102.65 -115.76  155.53  149.24    4.00  -48.33  -53.10

DOCKED: MODEL        9
DOCKED: USER    Run = 9
DOCKED: USER    DPF = nystatin.dpf
DOCKED: USER  
DOCKED: USER    Estimated Free Energy of Binding    =  -12.73 kcal/mol  [=(1)+(2)+(3)-(4)]
DOCKED: USER    Estimated Inhibition Constant, Ki   =  470.03 pM (picomolar)  [Temperature = 298.15 K]
DOCKED: USER    
DOCKED: USER    (1) Final Intermolecular Energy     =  -12.30 kcal/mol
DOCKED: USER        vdW + Hbond + desolv Energy     =  -12.31 kcal/mol
DOCKED: USER        Electrostatic Energy            =   +0.02 kcal/mol
DOCKED: USER    (2) Final Total Internal Energy     =   -6.86 kcal/mol
DOCKED: USER    (3) Torsional Free Energy           =   +4.18 kcal/mol
DOCKED: USER    (4) Unbound System's Energy         =   -2.25 kcal/mol
DOCKED: USER    
DOCKED: USER    
DOCKED: USER    NEWDPF move nystatin.pdbqt
DOCKED: USER    NEWDPF about 31.688100 -15.344400 6.764500
DOCKED: USER    NEWDPF tran0 3.049685 -31.387081 10.241849
DOCKED: USER    NEWDPF quaternion0 0.137955 -0.122567 0.193909 0.963507
DOCKED: USER    NEWDPF axisangle0 0.515365 -0.457878 0.724393 31.053061
DOCKED: USER    NEWDPF quat0 0.515365 -0.457878 0.724393 31.053061
DOCKED: USER    NEWDPF dihe0 43.91 -157.84 53.93 73.61 116.02 -177.74 -104.06 -102.65 -115.76 155.53 149.24 4.00 -48.33 -53.10 
DOCKED: USER  keepresnum = 1 
DOCKED: USER  
DOCKED: REMARK  14 active torsions:
DOCKED: REMARK  status: ('A' for Active; 'I' for Inactive)
DOCKED: REMARK    1  A    between atoms: C1_1  and  O1_2 
DOCKED: REMARK    2  A    between atoms: O1_2  and  C3_5 
DOCKED: REMARK    3  A    between atoms: C2_3  and  O3_7 
DOCKED: REMARK    4  A    between atoms: C4_6  and  N1_13 
DOCKED: REMARK    5  A    between atoms: C8_12  and  O4_20 
DOCKED: REMARK    6  A    between atoms: C10_18  and  O5_23 
DOCKED: REMARK    7  A    between atoms: C12_22  and  C15_27 
DOCKED: REMARK    8  A    between atoms: C14_26  and  O6_30 
DOCKED: REMARK    9  A    between atoms: C23_40  and  O10_43 
DOCKED: REMARK   10  A    between atoms: C25_42  and  O11_47 
DOCKED: REMARK   11  A    between atoms: C31_52  and  O12_55 
DOCKED: REMARK   12  A    between atoms: C35_58  and  O13_61 
DOCKED: REMARK   13  A    between atoms: C39_64  and  O14_68 
DOCKED: REMARK   14  A    between atoms: C40_65  and  O15_71 
DOCKED: USER                              x       y       z     vdW  Elec       q    Type
DOCKED: USER                           _______ _______ _______ _____ _____    ______ ____
DOCKED: ROOT
DOCKED: ATOM      1  C3  UNK     1       5.336 -36.380   5.997 -0.33 +0.00    +0.150 C 
DOCKED: ATOM      2  C6  UNK     1       6.188 -36.564   7.267 -0.31 +0.00    +0.068 C 
DOCKED: ATOM      3  C7  UNK     1       4.168 -35.416   6.166 -0.25 +0.00    +0.005 C 
DOCKED: ATOM      4  C10 UNK     1       6.914 -37.926   7.305 -0.23 +0.00    +0.137 C 
DOCKED: ATOM      5  C11 UNK     1       4.254 -34.305   6.889 -0.14 -0.00    -0.002 C 
DOCKED: ATOM      6  C12 UNK     1       8.009 -38.024   8.417 -0.14 +0.00    +0.144 C 
DOCKED: ATOM      7  C13 UNK     1       3.220 -33.493   7.075 -0.29 -0.00    -0.000 C 
DOCKED: ATOM      8  C14 UNK     1       7.587 -37.678   9.880 -0.17 +0.00    +0.142 C 
DOCKED: ATOM      9  C16 UNK     1       3.225 -32.499   7.955 -0.37 +0.00    +0.000 C 
DOCKED: ATOM     10  C17 UNK     1       7.821 -36.182  10.201 -0.13 +0.00    +0.111 C 
DOCKED: ATOM     11  C18 UNK     1       2.184 -31.693   8.139 -0.36 +0.00    +0.000 C 
DOCKED: ATOM     12  C19 UNK     1       7.081 -35.693  11.434 -0.12 +0.00    +0.131 C 
DOCKED: ATOM     13  C20 UNK     1       2.167 -30.715   9.036 -0.42 -0.00    -0.000 C 
DOCKED: ATOM     14  C21 UNK     1       6.002 -34.657  11.134 -0.11 +0.00    +0.112 C 
DOCKED: ATOM     15  O9  UNK     1       7.361 -36.106  12.592 -0.04 -0.00    -0.298 OA
DOCKED: ATOM     16  C22 UNK     1       1.136 -29.891   9.183 -0.45 -0.00    -0.004 C 
DOCKED: ATOM     17  C23 UNK     1       5.405 -33.997  12.395 -0.11 +0.00    +0.153 C 
DOCKED: ATOM     18  C24 UNK     1       1.155 -28.842   9.997 -0.32 -0.00    -0.026 C 
DOCKED: ATOM     19  C25 UNK     1       4.464 -32.807  12.077 -0.17 +0.00    +0.147 C 
DOCKED: ATOM     20  C26 UNK     1      -0.024 -27.885  10.075 -0.51 +0.00    +0.031 C 
DOCKED: ATOM     21  C27 UNK     1       4.022 -32.119  13.385 -0.18 +0.00    +0.037 C 
DOCKED: ATOM     22  C28 UNK     1      -0.498 -27.613  11.512 -0.54 +0.00    +0.031 C 
DOCKED: ATOM     23  C29 UNK     1       2.967 -31.014  13.170 -0.31 +0.00    +0.034 C 
DOCKED: ATOM     24  C30 UNK     1      -1.634 -26.601  11.551 -0.38 -0.00    -0.026 C 
DOCKED: ATOM     25  C31 UNK     1       2.489 -30.462  14.531 -0.28 +0.00    +0.120 C 
DOCKED: ATOM     26  C32 UNK     1      -1.476 -25.402  12.099 -0.44 -0.00    -0.004 C 
DOCKED: ATOM     27  C33 UNK     1       1.518 -29.273  14.359 -0.40 +0.00    +0.063 C 
DOCKED: ATOM     28  C34 UNK     1      -2.433 -24.481  12.108 -0.32 -0.00    -0.004 C 
DOCKED: ATOM     29  C35 UNK     1       1.334 -28.430  15.646 -0.35 +0.01    +0.123 C 
DOCKED: ATOM     30  C36 UNK     1      -2.266 -23.274  12.636 -0.29 -0.00    -0.020 C 
DOCKED: ATOM     31  C37 UNK     1       0.239 -27.366  15.418 -0.44 +0.00    +0.064 C 
DOCKED: ATOM     32  C38 UNK     1      -3.360 -22.215  12.578 -0.16 +0.00    +0.033 C 
DOCKED: ATOM     33  C39 UNK     1       0.058 -26.361  16.581 -0.33 -0.00    +0.130 C 
DOCKED: ATOM     34  C40 UNK     1      -4.221 -22.103  13.880 -0.10 +0.00    +0.131 C 
DOCKED: ATOM     35  C41 UNK     1      -2.774 -20.885  12.054 -0.18 +0.00    +0.017 C 
DOCKED: ATOM     36  C42 UNK     1      -0.941 -25.273  16.145 -0.29 +0.00    +0.142 C 
DOCKED: ATOM     37  C43 UNK     1      -3.548 -21.991  15.285 -0.21 -0.00    +0.040 C 
DOCKED: ATOM     38  C44 UNK     1      -1.148 -24.161  17.172 -0.05 -0.00    +0.261 C 
DOCKED: ATOM     39  C45 UNK     1      -3.111 -23.388  15.805 -0.21 -0.00    +0.134 C 
DOCKED: ATOM     40  C46 UNK     1      -2.405 -20.955  15.332 -0.07 +0.00    +0.015 C 
DOCKED: ATOM     41  O16 UNK     1      -2.128 -23.256  16.874 -0.16 +0.00    -0.316 OA
DOCKED: ATOM     42  O17 UNK     1      -0.449 -24.026  18.213 -0.16 +0.00    -0.265 OA
DOCKED: ATOM     43  C47 UNK     1      -4.302 -24.203  16.348 -0.15 -0.00    +0.040 C 
DOCKED: ENDROOT
DOCKED: BRANCH   1  44
DOCKED: ATOM     44  O1  UNK     1       6.228 -35.924   4.952 -0.15 -0.00    -0.349 OA
DOCKED: BRANCH  44  45
DOCKED: ATOM     45  C1  UNK     1       6.964 -36.898   4.169 -0.11 +0.00    +0.291 C 
DOCKED: ATOM     46  C2  UNK     1       6.019 -37.893   3.466 -0.12 +0.00    +0.206 C 
DOCKED: ATOM     47  C4  UNK     1       5.090 -37.188   2.455 -0.10 +0.00    +0.247 C 
DOCKED: ATOM     48  C8  UNK     1       5.918 -36.366   1.440 -0.06 +0.00    +0.179 C 
DOCKED: ATOM     49  C5  UNK     1       7.046 -35.506   2.066 -0.09 +0.00    +0.151 C 
DOCKED: ATOM     50  O2  UNK     1       7.730 -36.235   3.130 -0.05 -0.00    -0.351 OA
DOCKED: ATOM     51  C9  UNK     1       6.567 -34.124   2.548 -0.10 +0.00    +0.042 C 
DOCKED: BRANCH  46  52
DOCKED: ATOM     52  O3  UNK     1       5.258 -38.650   4.415 -0.16 -0.01    -0.388 OA
DOCKED: ATOM     53  H5  UNK     1       5.662 -38.574   5.283 +0.05 +0.00    +0.210 HD
DOCKED: ENDBRANCH  46  52
DOCKED: BRANCH  47  54
DOCKED: ATOM     54  N1  UNK     1       4.036 -36.353   3.136 -0.16 -0.00    -0.070 N 
DOCKED: ATOM     55  H11 UNK     1       3.377 -35.984   2.435 +0.05 +0.00    +0.274 HD
DOCKED: ATOM     56  H12 UNK     1       4.490 -35.572   3.632 +0.07 +0.00    +0.274 HD
DOCKED: ATOM     57  H13 UNK     1       3.529 -36.935   3.817 +0.09 +0.01    +0.274 HD
DOCKED: ENDBRANCH  47  54
DOCKED: BRANCH  48  58
DOCKED: ATOM     58  O4  UNK     1       6.511 -37.278   0.507 -0.01 -0.00    -0.391 OA
DOCKED: ATOM     59  H19 UNK     1       7.399 -37.504   0.794 +0.01 +0.00    +0.210 HD
DOCKED: ENDBRANCH  48  58
DOCKED: ENDBRANCH  44  45
DOCKED: ENDBRANCH   1  44
DOCKED: BRANCH   4  60
DOCKED: ATOM     60  O5  UNK     1       5.926 -38.961   7.441 -0.20 -0.00    -0.394 OA
DOCKED: ATOM     61  H21 UNK     1       6.143 -39.494   8.210 +0.05 +0.00    +0.210 HD
DOCKED: ENDBRANCH   4  60
DOCKED: BRANCH   6  62
DOCKED: ATOM     62  C15 UNK     1       8.775 -39.346   8.392 -0.08 +0.00    +0.182 C 
DOCKED: ATOM     63  O7  UNK     1       8.128 -40.428   8.367 -0.01 -0.01    -0.648 OA
DOCKED: ATOM     64  O8  UNK     1      10.035 -39.385   8.399 +0.02 -0.01    -0.648 OA
DOCKED: ENDBRANCH   6  62
DOCKED: BRANCH   8  65
DOCKED: ATOM     65  O6  UNK     1       6.236 -38.071  10.166 -0.20 -0.00    -0.394 OA
DOCKED: ATOM     66  H27 UNK     1       5.988 -38.804   9.599 +0.06 +0.00    +0.210 HD
DOCKED: ENDBRANCH   8  65
DOCKED: BRANCH  17  67
DOCKED: ATOM     67  O10 UNK     1       4.673 -34.996  13.124 -0.03 -0.01    -0.393 OA
DOCKED: ATOM     68  H36 UNK     1       5.244 -35.744  13.308 +0.05 +0.00    +0.210 HD
DOCKED: ENDBRANCH  17  67
DOCKED: BRANCH  19  69
DOCKED: ATOM     69  O11 UNK     1       5.129 -31.845  11.245 -0.17 -0.01    -0.393 OA
DOCKED: ATOM     70  H41 UNK     1       4.640 -31.736  10.427 +0.07 +0.00    +0.210 HD
DOCKED: ENDBRANCH  19  69
DOCKED: BRANCH  25  71
DOCKED: ATOM     71  O12 UNK     1       1.831 -31.519  15.249 -0.10 -0.02    -0.395 OA
DOCKED: ATOM     72  H51 UNK     1       1.335 -31.145  15.981 +0.06 +0.01    +0.210 HD
DOCKED: ENDBRANCH  25  71
DOCKED: BRANCH  29  73
DOCKED: ATOM     73  O13 UNK     1       0.986 -29.265  16.759 -0.08 -0.02    -0.395 OA
DOCKED: ATOM     74  H57 UNK     1       0.577 -28.731  17.444 +0.06 -0.00    +0.210 HD
DOCKED: ENDBRANCH  29  73
DOCKED: BRANCH  33  75
DOCKED: ATOM     75  O14 UNK     1      -0.461 -27.015  17.750 -0.08 +0.05    -0.395 OA
DOCKED: ATOM     76  H66 UNK     1      -0.670 -26.358  18.417 +0.05 -0.03    +0.210 HD
DOCKED: ENDBRANCH  33  75
DOCKED: BRANCH  34  77
DOCKED: ATOM     77  O15 UNK     1      -5.150 -21.018  13.740 -0.01 +0.00    -0.394 OA
DOCKED: ATOM     78  H68 UNK     1      -5.950 -21.336  13.314 +0.02 -0.00    +0.210 HD
DOCKED: ENDBRANCH  34  77
DOCKED: TORSDOF 14
DOCKED: TER
DOCKED: ENDMDL
________________________________________________________________________________


	BEGINNING GENETIC ALGORITHM DOCKING 10 of 10
Run: 10 Seed: 1606467885 1805475053 [ Run 10 of 10 GA/GALS ]
Beginning LAMARCKIAN GENETIC ALGORITHM (LGA), with a maximum of 2500000 energy evaluations.

Final-Value: -18.310


	FINAL GENETIC ALGORITHM DOCKED STATE
	_______________________________________________


Detailed state:  trans -2.617 -22.245 12.387 quatxyzw 0.708652 0.704991 0.026353 -0.010286 center 31.688 -15.344 6.764 ntor 14 76.5724 -152.3500 52.1466 64.3354 115.1702 -10.5244 -121.6334 -124.7246 75.7420 -20.0079 144.3280 127.5227 4.6187 -43.4433
State:	 -2.617 -22.245  12.387   0.709  0.705  0.026 -178.821     76.57 -152.35   52.15   64.34  115.17  -10.52 -121.63 -124.72   75.74  -20.01  144.33  127.52    4.62  -43.44

DOCKED: MODEL       10
DOCKED: USER    Run = 10
DOCKED: USER    DPF = nystatin.dpf
DOCKED: USER  
DOCKED: USER    Estimated Free Energy of Binding    =  -11.88 kcal/mol  [=(1)+(2)+(3)-(4)]
DOCKED: USER    Estimated Inhibition Constant, Ki   =    1.95 nM (nanomolar)  [Temperature = 298.15 K]
DOCKED: USER    
DOCKED: USER    (1) Final Intermolecular Energy     =  -11.85 kcal/mol
DOCKED: USER        vdW + Hbond + desolv Energy     =  -11.64 kcal/mol
DOCKED: USER        Electrostatic Energy            =   -0.21 kcal/mol
DOCKED: USER    (2) Final Total Internal Energy     =   -6.45 kcal/mol
DOCKED: USER    (3) Torsional Free Energy           =   +4.18 kcal/mol
DOCKED: USER    (4) Unbound System's Energy         =   -2.25 kcal/mol
DOCKED: USER    
DOCKED: USER    
DOCKED: USER    NEWDPF move nystatin.pdbqt
DOCKED: USER    NEWDPF about 31.688100 -15.344400 6.764500
DOCKED: USER    NEWDPF tran0 -2.617122 -22.245234 12.386925
DOCKED: USER    NEWDPF quaternion0 0.708652 0.704991 0.026353 -0.010286
DOCKED: USER    NEWDPF axisangle0 0.708690 0.705028 0.026354 -178.821281
DOCKED: USER    NEWDPF quat0 0.708690 0.705028 0.026354 -178.821281
DOCKED: USER    NEWDPF dihe0 76.57 -152.35 52.15 64.34 115.17 -10.52 -121.63 -124.72 75.74 -20.01 144.33 127.52 4.62 -43.44 
DOCKED: USER  keepresnum = 1 
DOCKED: USER  
DOCKED: REMARK  14 active torsions:
DOCKED: REMARK  status: ('A' for Active; 'I' for Inactive)
DOCKED: REMARK    1  A    between atoms: C1_1  and  O1_2 
DOCKED: REMARK    2  A    between atoms: O1_2  and  C3_5 
DOCKED: REMARK    3  A    between atoms: C2_3  and  O3_7 
DOCKED: REMARK    4  A    between atoms: C4_6  and  N1_13 
DOCKED: REMARK    5  A    between atoms: C8_12  and  O4_20 
DOCKED: REMARK    6  A    between atoms: C10_18  and  O5_23 
DOCKED: REMARK    7  A    between atoms: C12_22  and  C15_27 
DOCKED: REMARK    8  A    between atoms: C14_26  and  O6_30 
DOCKED: REMARK    9  A    between atoms: C23_40  and  O10_43 
DOCKED: REMARK   10  A    between atoms: C25_42  and  O11_47 
DOCKED: REMARK   11  A    between atoms: C31_52  and  O12_55 
DOCKED: REMARK   12  A    between atoms: C35_58  and  O13_61 
DOCKED: REMARK   13  A    between atoms: C39_64  and  O14_68 
DOCKED: REMARK   14  A    between atoms: C40_65  and  O15_71 
DOCKED: USER                              x       y       z     vdW  Elec       q    Type
DOCKED: USER                           _______ _______ _______ _____ _____    ______ ____
DOCKED: ROOT
DOCKED: ATOM      1  C3  UNK     1      -5.140 -17.476  16.754 -0.04 -0.01    +0.150 C 
DOCKED: ATOM      2  C6  UNK     1      -5.335 -16.838  15.366 -0.02 -0.00    +0.068 C 
DOCKED: ATOM      3  C7  UNK     1      -4.740 -18.947  16.712 -0.11 -0.00    +0.005 C 
DOCKED: ATOM      4  C10 UNK     1      -6.304 -15.636  15.394 -0.00 -0.00    +0.137 C 
DOCKED: ATOM      5  C11 UNK     1      -3.907 -19.438  15.801 -0.18 +0.00    -0.002 C 
DOCKED: ATOM      6  C12 UNK     1      -6.294 -14.790  14.080 -0.00 -0.00    +0.144 C 
DOCKED: ATOM      7  C13 UNK     1      -3.601 -20.728  15.737 -0.22 +0.00    -0.000 C 
DOCKED: ATOM      8  C14 UNK     1      -6.524 -15.544  12.733 +0.00 -0.00    +0.142 C 
DOCKED: ATOM      9  C16 UNK     1      -2.942 -21.269  14.718 -0.29 +0.00    +0.000 C 
DOCKED: ATOM     10  C17 UNK     1      -5.187 -15.995  12.097 -0.00 +0.00    +0.111 C 
DOCKED: ATOM     11  C18 UNK     1      -2.643 -22.562  14.660 -0.24 +0.00    +0.000 C 
DOCKED: ATOM     12  C19 UNK     1      -5.342 -17.056  11.022 -0.00 +0.00    +0.131 C 
DOCKED: ATOM     13  C20 UNK     1      -2.012 -23.120  13.633 -0.19 -0.00    -0.000 C 
DOCKED: ATOM     14  C21 UNK     1      -4.722 -18.401  11.390 -0.01 +0.00    +0.112 C 
DOCKED: ATOM     15  O9  UNK     1      -5.919 -16.821   9.926 +0.00 -0.00    -0.298 OA
DOCKED: ATOM     16  C22 UNK     1      -1.683 -24.406  13.603 -0.34 -0.00    -0.004 C 
DOCKED: ATOM     17  C23 UNK     1      -4.680 -19.408  10.221 -0.01 +0.00    +0.153 C 
DOCKED: ATOM     18  C24 UNK     1      -0.954 -24.946  12.634 -0.43 -0.00    -0.026 C 
DOCKED: ATOM     19  C25 UNK     1      -3.868 -20.688  10.545 -0.03 +0.00    +0.147 C 
DOCKED: ATOM     20  C26 UNK     1      -0.540 -26.410  12.683 -0.53 +0.00    +0.031 C 
DOCKED: ATOM     21  C27 UNK     1      -3.758 -21.575   9.287 -0.03 +0.00    +0.037 C 
DOCKED: ATOM     22  C28 UNK     1      -0.848 -27.176  11.386 -0.51 +0.00    +0.031 C 
DOCKED: ATOM     23  C29 UNK     1      -3.090 -22.940   9.556 -0.09 +0.00    +0.034 C 
DOCKED: ATOM     24  C30 UNK     1      -0.360 -28.616  11.450 -0.42 -0.00    -0.026 C 
DOCKED: ATOM     25  C31 UNK     1      -3.129 -23.812   8.282 -0.09 +0.00    +0.120 C 
DOCKED: ATOM     26  C32 UNK     1       0.624 -29.050  10.672 -0.55 -0.00    -0.004 C 
DOCKED: ATOM     27  C33 UNK     1      -2.368 -25.142   8.474 -0.20 +0.00    +0.063 C 
DOCKED: ATOM     28  C34 UNK     1       1.102 -30.288  10.737 -0.48 -0.00    -0.004 C 
DOCKED: ATOM     29  C35 UNK     1      -2.020 -25.856   7.143 -0.20 +0.00    +0.123 C 
DOCKED: ATOM     30  C36 UNK     1       2.103 -30.713   9.974 -0.41 -0.00    -0.020 C 
DOCKED: ATOM     31  C37 UNK     1      -1.400 -27.238   7.442 -0.29 +0.00    +0.064 C 
DOCKED: ATOM     32  C38 UNK     1       2.673 -32.119  10.112 -0.31 +0.00    +0.033 C 
DOCKED: ATOM     33  C39 UNK     1      -0.874 -27.997   6.200 -0.27 +0.00    +0.130 C 
DOCKED: ATOM     34  C40 UNK     1       2.119 -33.147   9.071 -0.23 +0.00    +0.131 C 
DOCKED: ATOM     35  C41 UNK     1       4.213 -32.051  10.222 -0.33 +0.00    +0.017 C 
DOCKED: ATOM     36  C42 UNK     1      -0.143 -29.268   6.668 -0.30 +0.00    +0.142 C 
DOCKED: ATOM     37  C43 UNK     1       2.088 -32.812   7.545 -0.20 +0.00    +0.040 C 
DOCKED: ATOM     38  C44 UNK     1       0.506 -30.071   5.542 -0.16 +0.00    +0.261 C 
DOCKED: ATOM     39  C45 UNK     1       0.857 -31.933   7.195 -0.26 +0.00    +0.134 C 
DOCKED: ATOM     40  C46 UNK     1       3.412 -32.214   7.025 -0.28 +0.00    +0.015 C 
DOCKED: ATOM     41  O16 UNK     1       1.043 -31.275   5.907 -0.10 -0.00    -0.316 OA
DOCKED: ATOM     42  O17 UNK     1       0.601 -29.665   4.352 -0.07 -0.00    -0.265 OA
DOCKED: ATOM     43  C47 UNK     1      -0.444 -32.759   7.125 -0.27 +0.00    +0.040 C 
DOCKED: ENDROOT
DOCKED: BRANCH   1  44
DOCKED: ATOM     44  O1  UNK     1      -4.134 -16.693  17.441 -0.04 +0.02    -0.349 OA
DOCKED: BRANCH  44  45
DOCKED: ATOM     45  C1  UNK     1      -4.548 -15.638  18.345 -0.02 -0.01    +0.291 C 
DOCKED: ATOM     46  C2  UNK     1      -4.238 -15.995  19.814 -0.02 -0.01    +0.206 C 
DOCKED: ATOM     47  C4  UNK     1      -2.723 -16.158  20.057 -0.06 -0.02    +0.247 C 
DOCKED: ATOM     48  C8  UNK     1      -1.960 -14.893  19.599 -0.04 -0.00    +0.179 C 
DOCKED: ATOM     49  C5  UNK     1      -2.387 -14.344  18.213 -0.03 -0.00    +0.151 C 
DOCKED: ATOM     50  O2  UNK     1      -3.836 -14.410  18.048 -0.00 +0.01    -0.351 OA
DOCKED: ATOM     51  C9  UNK     1      -1.655 -15.014  17.036 -0.10 -0.00    +0.042 C 
DOCKED: BRANCH  46  52
DOCKED: ATOM     52  O3  UNK     1      -4.950 -17.166  20.229 -0.01 +0.02    -0.388 OA
DOCKED: ATOM     53  H5  UNK     1      -5.271 -17.637  19.456 +0.01 -0.01    +0.210 HD
DOCKED: ENDBRANCH  46  52
DOCKED: BRANCH  47  54
DOCKED: ATOM     54  N1  UNK     1      -2.175 -17.411  19.425 +0.41 +0.02    -0.070 N 
DOCKED: ATOM     55  H11 UNK     1      -2.754 -18.220  19.693 -0.91 -0.11    +0.274 HD
DOCKED: ATOM     56  H12 UNK     1      -1.205 -17.556  19.744 -1.01 -0.03    +0.274 HD
DOCKED: ATOM     57  H13 UNK     1      -2.180 -17.305  18.401 -0.84 -0.08    +0.274 HD
DOCKED: ENDBRANCH  47  54
DOCKED: BRANCH  48  58
DOCKED: ATOM     58  O4  UNK     1      -2.173 -13.866  20.576 +0.00 +0.00    -0.391 OA
DOCKED: ATOM     59  H19 UNK     1      -2.963 -13.366  20.356 +0.00 -0.00    +0.210 HD
DOCKED: ENDBRANCH  48  58
DOCKED: ENDBRANCH  44  45
DOCKED: ENDBRANCH   1  44
DOCKED: BRANCH   4  60
DOCKED: ATOM     60  O5  UNK     1      -7.621 -16.124  15.701 +0.00 +0.00    -0.394 OA
DOCKED: ATOM     61  H21 UNK     1      -8.230 -15.812  15.027 +0.00 -0.00    +0.210 HD
DOCKED: ENDBRANCH   4  60
DOCKED: BRANCH   6  62
DOCKED: ATOM     62  C15 UNK     1      -7.196 -13.558  14.151 -0.01 +0.00    +0.182 C 
DOCKED: ATOM     63  O7  UNK     1      -8.414 -13.708  14.443 +0.01 -0.00    -0.648 OA
DOCKED: ATOM     64  O8  UNK     1      -6.758 -12.398  13.923 +0.01 -0.00    -0.648 OA
DOCKED: ENDBRANCH   6  62
DOCKED: BRANCH   8  65
DOCKED: ATOM     65  O6  UNK     1      -7.437 -16.645  12.871 +0.00 +0.00    -0.394 OA
DOCKED: ATOM     66  H27 UNK     1      -7.933 -16.550  13.687 +0.00 -0.00    +0.210 HD
DOCKED: ENDBRANCH   8  65
DOCKED: BRANCH  17  67
DOCKED: ATOM     67  O10 UNK     1      -6.030 -19.776   9.893 +0.00 -0.00    -0.393 OA
DOCKED: ATOM     68  H36 UNK     1      -6.547 -18.986   9.724 +0.00 +0.00    +0.210 HD
DOCKED: ENDBRANCH  17  67
DOCKED: BRANCH  19  69
DOCKED: ATOM     69  O11 UNK     1      -2.548 -20.349  10.994 -0.03 -0.00    -0.393 OA
DOCKED: ATOM     70  H41 UNK     1      -2.031 -20.025  10.253 +0.04 +0.00    +0.210 HD
DOCKED: ENDBRANCH  19  69
DOCKED: BRANCH  25  71
DOCKED: ATOM     71  O12 UNK     1      -4.502 -24.087   7.956 -0.03 -0.00    -0.395 OA
DOCKED: ATOM     72  H51 UNK     1      -4.539 -24.591   7.139 +0.04 +0.00    +0.210 HD
DOCKED: ENDBRANCH  25  71
DOCKED: BRANCH  29  73
DOCKED: ATOM     73  O13 UNK     1      -3.188 -26.007   6.324 -0.13 -0.00    -0.395 OA
DOCKED: ATOM     74  H57 UNK     1      -2.945 -26.424   5.494 +0.05 +0.00    +0.210 HD
DOCKED: ENDBRANCH  29  73
DOCKED: BRANCH  33  75
DOCKED: ATOM     75  O14 UNK     1      -1.955 -28.383   5.337 -0.20 -0.00    -0.395 OA
DOCKED: ATOM     76  H66 UNK     1      -2.731 -27.857   5.540 +0.04 +0.00    +0.210 HD
DOCKED: ENDBRANCH  33  75
DOCKED: BRANCH  34  77
DOCKED: ATOM     77  O15 UNK     1       2.794 -34.403   9.239 -0.12 -0.00    -0.394 OA
DOCKED: ATOM     78  H68 UNK     1       3.591 -34.411   8.703 +0.07 +0.00    +0.210 HD
DOCKED: ENDBRANCH  34  77
DOCKED: TORSDOF 14
DOCKED: TER
DOCKED: ENDMDL
________________________________________________________________________________

DPF> analysis                             # perform a ranked cluster analysis


		CLUSTER ANALYSIS OF CONFORMATIONS
		_________________________________

Number of conformations = 10

RMSD cluster analysis will be performed using the ligand atoms only (78 / 78 total atoms).

Outputting structurally similar clusters, ranked in order of increasing energy.


________________________________________________________________________________

Number of distinct conformational clusters found = 9,  out of 10 runs,
Using an rmsd-tolerance of 2.0 A


	CLUSTERING HISTOGRAM
	____________________

________________________________________________________________________________
     |           |     |           |     |                                    
Clus | Lowest    | Run | Mean      | Num | Histogram                          
-ter | Binding   |     | Binding   | in  |                                    
Rank | Energy    |     | Energy    | Clus|    5    10   15   20   25   30   35
_____|___________|_____|___________|_____|____:____|____:____|____:____|____:___
   1 |    -13.53 |   1 |    -13.53 |   1 |#
   2 |    -12.73 |   9 |    -12.73 |   1 |#
   3 |    -12.27 |   6 |    -12.23 |   2 |##
   4 |    -11.88 |  10 |    -11.88 |   1 |#
   5 |    -11.85 |   8 |    -11.85 |   1 |#
   6 |    -11.81 |   4 |    -11.81 |   1 |#
   7 |    -11.78 |   5 |    -11.78 |   1 |#
   8 |    -10.70 |   2 |    -10.70 |   1 |#
   9 |    -10.59 |   3 |    -10.59 |   1 |#
_____|___________|_____|___________|_____|______________________________________


Number of multi-member conformational clusters found = 1, out of 10 runs.

	RMSD TABLE
	__________

_____________________________________________________________________
     |      |      |           |         |                 |
Rank | Sub- | Run  | Binding   | Cluster | Reference       | Grep
     | Rank |      | Energy    | RMSD    | RMSD            | Pattern
_____|______|______|___________|_________|_________________|___________
   1      1      1      -13.53      0.00     27.41           RANKING
   2      1      9      -12.73      0.00     27.85           RANKING
   3      1      6      -12.27      0.00     27.68           RANKING
   3      2      7      -12.19      0.91     27.64           RANKING
   4      1     10      -11.88      0.00     26.98           RANKING
   5      1      8      -11.85      0.00     27.69           RANKING
   6      1      4      -11.81      0.00     29.79           RANKING
   7      1      5      -11.78      0.00     35.84           RANKING
   8      1      2      -10.70      0.00      8.88           RANKING
   9      1      3      -10.59      0.00     66.74           RANKING
_______________________________________________________________________



	INFORMATION ENTROPY ANALYSIS FOR THIS CLUSTERING
	________________________________________________


Information entropy for this clustering = 0.94  (rmstol = 2.00 Angstrom)

_______________________________________________________________________


	STATISTICAL MECHANICAL ANALYSIS
	_______________________________


Partition function, Q =    10.20            at Temperature, T = 298.15 K
Free energy,        A ~ -1376.17 kcal/mol   at Temperature, T = 298.15 K
Internal energy,    U =   -11.93 kcal/mol   at Temperature, T = 298.15 K
Entropy,            S =     4.58 kcal/mol/K at Temperature, T = 298.15 K

_______________________________________________________________________


	LOWEST ENERGY DOCKED CONFORMATION from EACH CLUSTER
	___________________________________________________



Keeping original residue number (specified in the input PDBQ file) for outputting.

MODEL        1
USER    Run = 1
USER    Cluster Rank = 1
USER    Number of conformations in this cluster = 1
USER  
USER    RMSD from reference structure       = 27.411 A
USER  
USER    Estimated Free Energy of Binding    =  -13.53 kcal/mol  [=(1)+(2)+(3)-(4)]
USER    Estimated Inhibition Constant, Ki   =  121.67 pM (picomolar)  [Temperature = 298.15 K]
USER    
USER    (1) Final Intermolecular Energy     =  -13.35 kcal/mol
USER        vdW + Hbond + desolv Energy     =  -13.35 kcal/mol
USER        Electrostatic Energy            =   +0.01 kcal/mol
USER    (2) Final Total Internal Energy     =   -6.61 kcal/mol
USER    (3) Torsional Free Energy           =   +4.18 kcal/mol
USER    (4) Unbound System's Energy         =   -2.25 kcal/mol
USER    
USER    
USER  
USER    DPF = nystatin.dpf
USER    NEWDPF move	nystatin.pdbqt
USER    NEWDPF about	31.688100 -15.344400 6.764500
USER    NEWDPF tran0	2.659606 -31.595343 11.032292
USER    NEWDPF axisangle0	-0.699678 0.591667 0.400475 171.030317
USER    NEWDPF quaternion0	-0.697536 0.589856 0.399249 0.078195
USER    NEWDPF dihe0	3.18 179.99 45.24 64.17 131.53 179.97 -111.55 -61.51 117.95 124.09 179.26 6.24 -51.50 -61.62 
USER  
USER                              x       y       z    vdW   Elec        q     RMS 
ATOM      1  C3  UNK     1       7.199 -36.803  10.362 -0.16 +0.00    +0.150    27.411
ATOM      2  C6  UNK     1       6.494 -36.757   8.994 -0.27 +0.00    +0.068    27.411
ATOM      3  C7  UNK     1       6.893 -35.610  11.259 -0.16 +0.00    +0.005    27.411
ATOM      4  C10 UNK     1       7.249 -37.552   7.907 -0.20 +0.00    +0.137    27.411
ATOM      5  C11 UNK     1       5.690 -35.050  11.323 -0.19 -0.00    -0.002    27.411
ATOM      6  C12 UNK     1       6.420 -37.774   6.600 -0.26 +0.00    +0.144    27.411
ATOM      7  C13 UNK     1       5.440 -33.980  12.068 -0.16 -0.00    -0.000    27.411
ATOM      8  C14 UNK     1       5.802 -36.516   5.914 -0.30 +0.00    +0.142    27.411
ATOM      9  C16 UNK     1       4.312 -33.285  11.987 -0.19 +0.00    +0.000    27.411
ATOM     10  C17 UNK     1       4.366 -36.239   6.420 -0.10 +0.00    +0.111    27.411
ATOM     11  C18 UNK     1       4.071 -32.212  12.733 -0.22 +0.00    +0.000    27.411
ATOM     12  C19 UNK     1       3.861 -34.841   6.110 -0.20 +0.00    +0.131    27.411
ATOM     13  C20 UNK     1       2.960 -31.492  12.639 -0.29 -0.00    -0.000    27.411
ATOM     14  C21 UNK     1       3.627 -33.982   7.349 -0.24 +0.00    +0.112    27.411
ATOM     15  O9  UNK     1       3.645 -34.452   4.930 -0.22 -0.00    -0.298    27.411
ATOM     16  C22 UNK     1       2.712 -30.445  13.419 -0.38 -0.00    -0.004    27.411
ATOM     17  C23 UNK     1       2.907 -32.649   7.054 -0.29 +0.00    +0.153    27.411
ATOM     18  C24 UNK     1       1.558 -29.790  13.409 -0.45 -0.00    -0.026    27.411
ATOM     19  C25 UNK     1       2.492 -31.881   8.335 -0.31 +0.00    +0.147    27.411
ATOM     20  C26 UNK     1       1.296 -28.643  14.374 -0.47 +0.00    +0.031    27.411
ATOM     21  C27 UNK     1       1.662 -30.637   7.959 -0.36 +0.00    +0.037    27.411
ATOM     22  C28 UNK     1       0.770 -27.373  13.686 -0.56 +0.00    +0.031    27.411
ATOM     23  C29 UNK     1       1.329 -29.734   9.165 -0.42 +0.00    +0.034    27.411
ATOM     24  C30 UNK     1       0.458 -26.273  14.690 -0.51 -0.00    -0.026    27.411
ATOM     25  C31 UNK     1       0.607 -28.454   8.690 -0.39 +0.00    +0.120    27.411
ATOM     26  C32 UNK     1      -0.785 -25.857  14.899 -0.47 -0.00    -0.004    27.411
ATOM     27  C33 UNK     1       0.153 -27.577   9.877 -0.46 +0.00    +0.063    27.411
ATOM     28  C34 UNK     1      -1.094 -24.931  15.801 -0.24 -0.00    -0.004    27.411
ATOM     29  C35 UNK     1      -0.914 -26.520   9.496 -0.35 +0.00    +0.123    27.411
ATOM     30  C36 UNK     1      -2.341 -24.533  16.025 -0.31 +0.00    -0.020    27.411
ATOM     31  C37 UNK     1      -1.190 -25.601  10.706 -0.38 +0.00    +0.064    27.411
ATOM     32  C38 UNK     1      -2.675 -23.515  17.108 -0.23 -0.00    +0.033    27.411
ATOM     33  C39 UNK     1      -2.344 -24.590  10.504 -0.22 +0.00    +0.130    27.411
ATOM     34  C40 UNK     1      -2.843 -22.049  16.589 -0.13 -0.00    +0.131    27.411
ATOM     35  C41 UNK     1      -3.831 -24.045  17.986 -0.13 -0.00    +0.017    27.411
ATOM     36  C42 UNK     1      -2.608 -23.865  11.836 -0.21 +0.00    +0.142    27.411
ATOM     37  C43 UNK     1      -3.755 -21.729  15.361 -0.19 -0.00    +0.040    27.411
ATOM     38  C44 UNK     1      -3.787 -22.895  11.802 -0.07 +0.00    +0.261    27.411
ATOM     39  C45 UNK     1      -3.014 -22.018  14.028 -0.22 +0.00    +0.134    27.411
ATOM     40  C46 UNK     1      -5.137 -22.412  15.434 -0.07 -0.00    +0.015    27.411
ATOM     41  O16 UNK     1      -3.962 -22.136  12.926 -0.04 -0.00    -0.316    27.411
ATOM     42  O17 UNK     1      -4.597 -22.805  10.839 -0.03 -0.00    -0.265    27.411
ATOM     43  C47 UNK     1      -2.004 -20.908  13.673 -0.33 +0.00    +0.040    27.411
ATOM     44  O1  UNK     1       6.800 -38.039  11.001 -0.16 -0.00    -0.349    27.411
ATOM     45  C1  UNK     1       7.409 -39.287  10.582 -0.22 +0.00    +0.291    27.411
ATOM     46  C2  UNK     1       8.948 -39.221  10.660 -0.08 +0.00    +0.206    27.411
ATOM     47  C4  UNK     1       9.442 -39.001  12.106 -0.05 +0.00    +0.247    27.411
ATOM     48  C8  UNK     1       8.865 -40.084  13.046 -0.14 +0.00    +0.179    27.411
ATOM     49  C5  UNK     1       7.350 -40.363  12.863 -0.29 +0.00    +0.151    27.411
ATOM     50  O2  UNK     1       6.987 -40.371  11.449 -0.28 -0.01    -0.351    27.411
ATOM     51  C9  UNK     1       6.449 -39.411  13.671 -0.38 +0.00    +0.042    27.411
ATOM     52  O3  UNK     1       9.473 -38.217   9.784 -0.01 -0.00    -0.388    27.411
ATOM     53  H5  UNK     1       9.184 -38.392   8.885 +0.04 +0.00    +0.210    27.411
ATOM     54  N1  UNK     1       9.154 -37.608  12.601 -0.04 -0.00    -0.070    27.411
ATOM     55  H11 UNK     1       9.619 -37.456  13.508 +0.03 +0.00    +0.274    27.411
ATOM     56  H12 UNK     1       8.136 -37.489  12.708 +0.06 +0.00    +0.274    27.411
ATOM     57  H13 UNK     1       9.502 -36.924  11.914 +0.03 +0.00    +0.274    27.411
ATOM     58  O4  UNK     1       9.579 -41.304  12.814 -0.05 -0.01    -0.391    27.411
ATOM     59  H19 UNK     1       8.980 -41.973  12.474 +0.06 +0.01    +0.210    27.411
ATOM     60  O5  UNK     1       8.493 -36.882   7.639 -0.06 -0.00    -0.394    27.411
ATOM     61  H21 UNK     1       8.608 -36.817   6.688 +0.05 +0.00    +0.210    27.411
ATOM     62  C15 UNK     1       7.148 -38.631   5.564 -0.14 +0.00    +0.182    27.411
ATOM     63  O7  UNK     1       8.403 -38.743   5.636 +0.02 -0.00    -0.648    27.411
ATOM     64  O8  UNK     1       6.531 -39.225   4.639 -0.02 -0.01    -0.648    27.411
ATOM     65  O6  UNK     1       6.637 -35.355   6.045 -0.06 -0.00    -0.394    27.411
ATOM     66  H27 UNK     1       7.524 -35.624   6.293 +0.04 +0.00    +0.210    27.411
ATOM     67  O10 UNK     1       3.788 -31.823   6.274 -0.07 +0.00    -0.393    27.411
ATOM     68  H36 UNK     1       3.872 -32.187   5.390 +0.05 -0.00    +0.210    27.411
ATOM     69  O11 UNK     1       1.709 -32.721   9.197 -0.10 -0.00    -0.393    27.411
ATOM     70  H41 UNK     1       2.162 -32.829  10.036 +0.09 +0.00    +0.210    27.411
ATOM     71  O12 UNK     1       1.504 -27.704   7.854 -0.12 -0.01    -0.395    27.411
ATOM     72  H51 UNK     1       1.107 -26.855   7.644 +0.10 +0.00    +0.210    27.411
ATOM     73  O13 UNK     1      -0.483 -25.740   8.373 -0.11 -0.01    -0.395    27.411
ATOM     74  H57 UNK     1      -0.417 -24.817   8.630 +0.09 +0.00    +0.210    27.411
ATOM     75  O14 UNK     1      -2.002 -23.610   9.511 -0.06 -0.00    -0.395    27.411
ATOM     76  H66 UNK     1      -1.842 -24.047   8.672 +0.06 +0.00    +0.210    27.411
ATOM     77  O15 UNK     1      -3.245 -21.204  17.677 -0.11 +0.06    -0.394    27.411
ATOM     78  H68 UNK     1      -2.606 -21.279  18.391 -0.13 -0.06    +0.210    27.411
TER
ENDMDL
MODEL        9
USER    Run = 9
USER    Cluster Rank = 2
USER    Number of conformations in this cluster = 1
USER  
USER    RMSD from reference structure       = 27.850 A
USER  
USER    Estimated Free Energy of Binding    =  -12.73 kcal/mol  [=(1)+(2)+(3)-(4)]
USER    Estimated Inhibition Constant, Ki   =  470.03 pM (picomolar)  [Temperature = 298.15 K]
USER    
USER    (1) Final Intermolecular Energy     =  -12.30 kcal/mol
USER        vdW + Hbond + desolv Energy     =  -12.31 kcal/mol
USER        Electrostatic Energy            =   +0.02 kcal/mol
USER    (2) Final Total Internal Energy     =   -6.86 kcal/mol
USER    (3) Torsional Free Energy           =   +4.18 kcal/mol
USER    (4) Unbound System's Energy         =   -2.25 kcal/mol
USER    
USER    
USER  
USER    DPF = nystatin.dpf
USER    NEWDPF move	nystatin.pdbqt
USER    NEWDPF about	31.688100 -15.344400 6.764500
USER    NEWDPF tran0	3.049685 -31.387081 10.241849
USER    NEWDPF axisangle0	0.515365 -0.457878 0.724393 31.053061
USER    NEWDPF quaternion0	0.137955 -0.122567 0.193909 0.963507
USER    NEWDPF dihe0	43.91 -157.84 53.93 73.61 116.02 -177.74 -104.06 -102.65 -115.76 155.53 149.24 4.00 -48.33 -53.10 
USER  
USER                              x       y       z    vdW   Elec        q     RMS 
ATOM      1  C3  UNK     1       5.336 -36.380   5.997 -0.33 +0.00    +0.150    27.850
ATOM      2  C6  UNK     1       6.188 -36.564   7.267 -0.31 +0.00    +0.068    27.850
ATOM      3  C7  UNK     1       4.168 -35.416   6.166 -0.25 +0.00    +0.005    27.850
ATOM      4  C10 UNK     1       6.914 -37.926   7.305 -0.23 +0.00    +0.137    27.850
ATOM      5  C11 UNK     1       4.254 -34.305   6.889 -0.14 -0.00    -0.002    27.850
ATOM      6  C12 UNK     1       8.009 -38.024   8.417 -0.14 +0.00    +0.144    27.850
ATOM      7  C13 UNK     1       3.220 -33.493   7.075 -0.29 -0.00    -0.000    27.850
ATOM      8  C14 UNK     1       7.587 -37.678   9.880 -0.17 +0.00    +0.142    27.850
ATOM      9  C16 UNK     1       3.225 -32.499   7.955 -0.37 +0.00    +0.000    27.850
ATOM     10  C17 UNK     1       7.821 -36.182  10.201 -0.13 +0.00    +0.111    27.850
ATOM     11  C18 UNK     1       2.184 -31.693   8.139 -0.36 +0.00    +0.000    27.850
ATOM     12  C19 UNK     1       7.081 -35.693  11.434 -0.12 +0.00    +0.131    27.850
ATOM     13  C20 UNK     1       2.167 -30.715   9.036 -0.42 -0.00    -0.000    27.850
ATOM     14  C21 UNK     1       6.002 -34.657  11.134 -0.11 +0.00    +0.112    27.850
ATOM     15  O9  UNK     1       7.361 -36.106  12.592 -0.04 -0.00    -0.298    27.850
ATOM     16  C22 UNK     1       1.136 -29.891   9.183 -0.45 -0.00    -0.004    27.850
ATOM     17  C23 UNK     1       5.405 -33.997  12.395 -0.11 +0.00    +0.153    27.850
ATOM     18  C24 UNK     1       1.155 -28.842   9.997 -0.32 -0.00    -0.026    27.850
ATOM     19  C25 UNK     1       4.464 -32.807  12.077 -0.17 +0.00    +0.147    27.850
ATOM     20  C26 UNK     1      -0.024 -27.885  10.075 -0.51 +0.00    +0.031    27.850
ATOM     21  C27 UNK     1       4.022 -32.119  13.385 -0.18 +0.00    +0.037    27.850
ATOM     22  C28 UNK     1      -0.498 -27.613  11.512 -0.54 +0.00    +0.031    27.850
ATOM     23  C29 UNK     1       2.967 -31.014  13.170 -0.31 +0.00    +0.034    27.850
ATOM     24  C30 UNK     1      -1.634 -26.601  11.551 -0.38 -0.00    -0.026    27.850
ATOM     25  C31 UNK     1       2.489 -30.462  14.531 -0.28 +0.00    +0.120    27.850
ATOM     26  C32 UNK     1      -1.476 -25.402  12.099 -0.44 -0.00    -0.004    27.850
ATOM     27  C33 UNK     1       1.518 -29.273  14.359 -0.40 +0.00    +0.063    27.850
ATOM     28  C34 UNK     1      -2.433 -24.481  12.108 -0.32 -0.00    -0.004    27.850
ATOM     29  C35 UNK     1       1.334 -28.430  15.646 -0.35 +0.01    +0.123    27.850
ATOM     30  C36 UNK     1      -2.266 -23.274  12.636 -0.29 -0.00    -0.020    27.850
ATOM     31  C37 UNK     1       0.239 -27.366  15.418 -0.44 +0.00    +0.064    27.850
ATOM     32  C38 UNK     1      -3.360 -22.215  12.578 -0.16 +0.00    +0.033    27.850
ATOM     33  C39 UNK     1       0.058 -26.361  16.581 -0.33 -0.00    +0.130    27.850
ATOM     34  C40 UNK     1      -4.221 -22.103  13.880 -0.10 +0.00    +0.131    27.850
ATOM     35  C41 UNK     1      -2.774 -20.885  12.054 -0.18 +0.00    +0.017    27.850
ATOM     36  C42 UNK     1      -0.941 -25.273  16.145 -0.29 +0.00    +0.142    27.850
ATOM     37  C43 UNK     1      -3.548 -21.991  15.285 -0.21 -0.00    +0.040    27.850
ATOM     38  C44 UNK     1      -1.148 -24.161  17.172 -0.05 -0.00    +0.261    27.850
ATOM     39  C45 UNK     1      -3.111 -23.388  15.805 -0.21 -0.00    +0.134    27.850
ATOM     40  C46 UNK     1      -2.405 -20.955  15.332 -0.07 +0.00    +0.015    27.850
ATOM     41  O16 UNK     1      -2.128 -23.256  16.874 -0.16 +0.00    -0.316    27.850
ATOM     42  O17 UNK     1      -0.449 -24.026  18.213 -0.16 +0.00    -0.265    27.850
ATOM     43  C47 UNK     1      -4.302 -24.203  16.348 -0.15 -0.00    +0.040    27.850
ATOM     44  O1  UNK     1       6.228 -35.924   4.952 -0.15 -0.00    -0.349    27.850
ATOM     45  C1  UNK     1       6.964 -36.898   4.169 -0.11 +0.00    +0.291    27.850
ATOM     46  C2  UNK     1       6.019 -37.893   3.466 -0.12 +0.00    +0.206    27.850
ATOM     47  C4  UNK     1       5.090 -37.188   2.455 -0.10 +0.00    +0.247    27.850
ATOM     48  C8  UNK     1       5.918 -36.366   1.440 -0.06 +0.00    +0.179    27.850
ATOM     49  C5  UNK     1       7.046 -35.506   2.066 -0.09 +0.00    +0.151    27.850
ATOM     50  O2  UNK     1       7.730 -36.235   3.130 -0.05 -0.00    -0.351    27.850
ATOM     51  C9  UNK     1       6.567 -34.124   2.548 -0.10 +0.00    +0.042    27.850
ATOM     52  O3  UNK     1       5.258 -38.650   4.415 -0.16 -0.01    -0.388    27.850
ATOM     53  H5  UNK     1       5.662 -38.574   5.283 +0.05 +0.00    +0.210    27.850
ATOM     54  N1  UNK     1       4.036 -36.353   3.136 -0.16 -0.00    -0.070    27.850
ATOM     55  H11 UNK     1       3.377 -35.984   2.435 +0.05 +0.00    +0.274    27.850
ATOM     56  H12 UNK     1       4.490 -35.572   3.632 +0.07 +0.00    +0.274    27.850
ATOM     57  H13 UNK     1       3.529 -36.935   3.817 +0.09 +0.01    +0.274    27.850
ATOM     58  O4  UNK     1       6.511 -37.278   0.507 -0.01 -0.00    -0.391    27.850
ATOM     59  H19 UNK     1       7.399 -37.504   0.794 +0.01 +0.00    +0.210    27.850
ATOM     60  O5  UNK     1       5.926 -38.961   7.441 -0.20 -0.00    -0.394    27.850
ATOM     61  H21 UNK     1       6.143 -39.494   8.210 +0.05 +0.00    +0.210    27.850
ATOM     62  C15 UNK     1       8.775 -39.346   8.392 -0.08 +0.00    +0.182    27.850
ATOM     63  O7  UNK     1       8.128 -40.428   8.367 -0.01 -0.01    -0.648    27.850
ATOM     64  O8  UNK     1      10.035 -39.385   8.399 +0.02 -0.01    -0.648    27.850
ATOM     65  O6  UNK     1       6.236 -38.071  10.166 -0.20 -0.00    -0.394    27.850
ATOM     66  H27 UNK     1       5.988 -38.804   9.599 +0.06 +0.00    +0.210    27.850
ATOM     67  O10 UNK     1       4.673 -34.996  13.124 -0.03 -0.01    -0.393    27.850
ATOM     68  H36 UNK     1       5.244 -35.744  13.308 +0.05 +0.00    +0.210    27.850
ATOM     69  O11 UNK     1       5.129 -31.845  11.245 -0.17 -0.01    -0.393    27.850
ATOM     70  H41 UNK     1       4.640 -31.736  10.427 +0.07 +0.00    +0.210    27.850
ATOM     71  O12 UNK     1       1.831 -31.519  15.249 -0.10 -0.02    -0.395    27.850
ATOM     72  H51 UNK     1       1.335 -31.145  15.981 +0.06 +0.01    +0.210    27.850
ATOM     73  O13 UNK     1       0.986 -29.265  16.759 -0.08 -0.02    -0.395    27.850
ATOM     74  H57 UNK     1       0.577 -28.731  17.444 +0.06 -0.00    +0.210    27.850
ATOM     75  O14 UNK     1      -0.461 -27.015  17.750 -0.08 +0.05    -0.395    27.850
ATOM     76  H66 UNK     1      -0.670 -26.358  18.417 +0.05 -0.03    +0.210    27.850
ATOM     77  O15 UNK     1      -5.150 -21.018  13.740 -0.01 +0.00    -0.394    27.850
ATOM     78  H68 UNK     1      -5.950 -21.336  13.314 +0.02 -0.00    +0.210    27.850
TER
ENDMDL
MODEL        6
USER    Run = 6
USER    Cluster Rank = 3
USER    Number of conformations in this cluster = 2
USER  
USER    RMSD from reference structure       = 27.680 A
USER  
USER    Estimated Free Energy of Binding    =  -12.27 kcal/mol  [=(1)+(2)+(3)-(4)]
USER    Estimated Inhibition Constant, Ki   =    1.01 nM (nanomolar)  [Temperature = 298.15 K]
USER    
USER    (1) Final Intermolecular Energy     =  -12.06 kcal/mol
USER        vdW + Hbond + desolv Energy     =  -12.05 kcal/mol
USER        Electrostatic Energy            =   -0.01 kcal/mol
USER    (2) Final Total Internal Energy     =   -6.64 kcal/mol
USER    (3) Torsional Free Energy           =   +4.18 kcal/mol
USER    (4) Unbound System's Energy         =   -2.25 kcal/mol
USER    
USER    
USER  
USER    DPF = nystatin.dpf
USER    NEWDPF move	nystatin.pdbqt
USER    NEWDPF about	31.688100 -15.344400 6.764500
USER    NEWDPF tran0	3.279250 -32.211343 8.825399
USER    NEWDPF axisangle0	0.707865 0.120525 0.695989 40.873538
USER    NEWDPF quaternion0	0.247168 0.042084 0.243021 0.937058
USER    NEWDPF dihe0	81.36 180.00 42.19 64.37 115.38 22.13 -131.06 52.62 87.86 -142.27 131.77 3.57 48.85 180.00 
USER  
USER                              x       y       z    vdW   Elec        q     RMS 
ATOM      1  C3  UNK     1       6.258 -38.205   6.987 -0.28 +0.00    +0.150    27.680
ATOM      2  C6  UNK     1       6.718 -38.002   8.442 -0.30 +0.00    +0.068    27.680
ATOM      3  C7  UNK     1       5.162 -37.244   6.541 -0.38 +0.00    +0.005    27.680
ATOM      4  C10 UNK     1       7.305 -39.286   9.067 -0.26 +0.00    +0.137    27.680
ATOM      5  C11 UNK     1       5.130 -35.970   6.914 -0.39 -0.00    -0.002    27.680
ATOM      6  C12 UNK     1       8.046 -39.044  10.422 -0.17 +0.00    +0.144    27.680
ATOM      7  C13 UNK     1       4.147 -35.149   6.565 -0.30 -0.00    -0.000    27.680
ATOM      8  C14 UNK     1       7.270 -38.290  11.547 -0.23 +0.00    +0.142    27.680
ATOM      9  C16 UNK     1       3.986 -33.941   7.092 -0.21 +0.00    +0.000    27.680
ATOM     10  C17 UNK     1       7.517 -36.764  11.484 -0.13 +0.00    +0.111    27.680
ATOM     11  C18 UNK     1       2.997 -33.127   6.740 -0.31 +0.00    +0.000    27.680
ATOM     12  C19 UNK     1       6.509 -35.943  12.269 -0.12 +0.00    +0.131    27.680
ATOM     13  C20 UNK     1       2.809 -31.929   7.282 -0.38 -0.00    -0.000    27.680
ATOM     14  C21 UNK     1       5.631 -35.050  11.397 -0.16 +0.00    +0.112    27.680
ATOM     15  O9  UNK     1       6.433 -35.997  13.526 -0.04 -0.00    -0.298    27.680
ATOM     16  C22 UNK     1       1.840 -31.108   6.894 -0.33 -0.00    -0.004    27.680
ATOM     17  C23 UNK     1       4.764 -34.056  12.200 -0.12 +0.00    +0.153    27.680
ATOM     18  C24 UNK     1       1.715 -29.867   7.349 -0.36 -0.00    -0.026    27.680
ATOM     19  C25 UNK     1       4.035 -33.020  11.307 -0.18 +0.00    +0.147    27.680
ATOM     20  C26 UNK     1       0.632 -28.939   6.818 -0.32 +0.00    +0.031    27.680
ATOM     21  C27 UNK     1       3.306 -31.984  12.188 -0.24 +0.00    +0.037    27.680
ATOM     22  C28 UNK     1      -0.193 -28.264   7.926 -0.40 +0.00    +0.031    27.680
ATOM     23  C29 UNK     1       2.433 -31.000  11.382 -0.37 +0.00    +0.034    27.680
ATOM     24  C30 UNK     1      -1.219 -27.295   7.357 -0.33 -0.00    -0.026    27.680
ATOM     25  C31 UNK     1       1.646 -30.079  12.340 -0.40 +0.00    +0.120    27.680
ATOM     26  C32 UNK     1      -1.128 -25.987   7.565 -0.27 -0.00    -0.004    27.680
ATOM     27  C33 UNK     1       0.847 -29.002  11.573 -0.51 +0.00    +0.063    27.680
ATOM     28  C34 UNK     1      -1.982 -25.113   7.044 -0.17 -0.00    -0.004    27.680
ATOM     29  C35 UNK     1       0.384 -27.821  12.463 -0.50 +0.00    +0.123    27.680
ATOM     30  C36 UNK     1      -1.876 -23.803   7.234 -0.11 -0.00    -0.020    27.680
ATOM     31  C37 UNK     1      -0.527 -26.880  11.646 -0.51 +0.00    +0.064    27.680
ATOM     32  C38 UNK     1      -2.833 -22.818   6.574 -0.04 +0.00    +0.033    27.680
ATOM     33  C39 UNK     1      -0.943 -25.582  12.377 -0.41 +0.00    +0.130    27.680
ATOM     34  C40 UNK     1      -4.004 -22.339   7.494 -0.02 +0.00    +0.131    27.680
ATOM     35  C41 UNK     1      -2.030 -21.693   5.881 -0.02 +0.00    +0.017    27.680
ATOM     36  C42 UNK     1      -1.703 -24.678  11.389 -0.29 +0.00    +0.142    27.680
ATOM     37  C43 UNK     1      -3.730 -21.814   8.940 -0.03 +0.00    +0.040    27.680
ATOM     38  C44 UNK     1      -2.098 -23.316  11.958 -0.20 +0.00    +0.261    27.680
ATOM     39  C45 UNK     1      -3.555 -22.994   9.934 -0.07 +0.00    +0.134    27.680
ATOM     40  C46 UNK     1      -2.570 -20.800   9.011 -0.06 +0.00    +0.015    27.680
ATOM     41  O16 UNK     1      -2.892 -22.546  11.154 -0.06 -0.00    -0.316    27.680
ATOM     42  O17 UNK     1      -1.700 -22.876  13.071 -0.20 -0.01    -0.265    27.680
ATOM     43  C47 UNK     1      -4.905 -23.627  10.328 -0.09 +0.00    +0.040    27.680
ATOM     44  O1  UNK     1       7.431 -38.066   6.150 -0.06 -0.00    -0.349    27.680
ATOM     45  C1  UNK     1       8.397 -37.025   6.444 -0.11 +0.00    +0.291    27.680
ATOM     46  C2  UNK     1       9.798 -37.383   5.910 -0.08 +0.00    +0.206    27.680
ATOM     47  C4  UNK     1       9.811 -37.516   4.373 -0.05 +0.00    +0.247    27.680
ATOM     48  C8  UNK     1       9.255 -36.233   3.712 -0.09 +0.00    +0.179    27.680
ATOM     49  C5  UNK     1       7.954 -35.685   4.353 -0.13 +0.00    +0.151    27.680
ATOM     50  O2  UNK     1       8.007 -35.780   5.809 -0.13 -0.00    -0.351    27.680
ATOM     51  C9  UNK     1       6.674 -36.333   3.792 -0.17 +0.00    +0.042    27.680
ATOM     52  O3  UNK     1      10.305 -38.572   6.529 -0.01 -0.00    -0.388    27.680
ATOM     53  H5  UNK     1       9.575 -39.082   6.889 +0.03 +0.00    +0.210    27.680
ATOM     54  N1  UNK     1       9.092 -38.754   3.902 -0.03 -0.00    -0.070    27.680
ATOM     55  H11 UNK     1       9.204 -38.857   2.882 +0.01 +0.00    +0.274    27.680
ATOM     56  H12 UNK     1       8.091 -38.674   4.135 +0.04 +0.00    +0.274    27.680
ATOM     57  H13 UNK     1       9.484 -39.578   4.379 +0.02 +0.00    +0.274    27.680
ATOM     58  O4  UNK     1      10.262 -35.217   3.796 -0.09 -0.00    -0.391    27.680
ATOM     59  H19 UNK     1       9.946 -34.490   4.338 +0.03 +0.00    +0.210    27.680
ATOM     60  O5  UNK     1       6.244 -40.246   9.207 -0.13 -0.00    -0.394    27.680
ATOM     61  H21 UNK     1       6.319 -40.664  10.068 +0.07 +0.00    +0.210    27.680
ATOM     62  C15 UNK     1       8.692 -40.309  10.988 -0.15 +0.00    +0.182    27.680
ATOM     63  O7  UNK     1       7.950 -41.243  11.400 -0.08 -0.01    -0.648    27.680
ATOM     64  O8  UNK     1       9.943 -40.444  11.057 +0.02 -0.01    -0.648    27.680
ATOM     65  O6  UNK     1       5.866 -38.596  11.542 -0.26 -0.00    -0.394    27.680
ATOM     66  H27 UNK     1       5.714 -39.395  11.032 +0.05 +0.00    +0.210    27.680
ATOM     67  O10 UNK     1       3.790 -34.805  12.945 -0.04 -0.01    -0.393    27.680
ATOM     68  H36 UNK     1       4.233 -35.469  13.479 +0.05 +0.00    +0.210    27.680
ATOM     69  O11 UNK     1       4.969 -32.337  10.459 -0.10 -0.01    -0.393    27.680
ATOM     70  H41 UNK     1       5.776 -32.161  10.948 +0.06 +0.00    +0.210    27.680
ATOM     71  O12 UNK     1       0.742 -30.887  13.113 -0.20 -0.01    -0.395    27.680
ATOM     72  H51 UNK     1       0.390 -30.364  13.838 +0.11 +0.01    +0.210    27.680
ATOM     73  O13 UNK     1      -0.313 -28.298  13.622 -0.32 -0.01    -0.395    27.680
ATOM     74  H57 UNK     1      -0.411 -29.251  13.569 +0.09 +0.01    +0.210    27.680
ATOM     75  O14 UNK     1      -1.805 -25.870  13.489 -0.21 -0.01    -0.395    27.680
ATOM     76  H66 UNK     1      -1.583 -26.730  13.852 +0.09 +0.00    +0.210    27.680
ATOM     77  O15 UNK     1      -4.778 -21.350   6.798 -0.00 -0.00    -0.394    27.680
ATOM     78  H68 UNK     1      -5.692 -21.398   7.090 +0.00 +0.00    +0.210    27.680
TER
ENDMDL
MODEL       10
USER    Run = 10
USER    Cluster Rank = 4
USER    Number of conformations in this cluster = 1
USER  
USER    RMSD from reference structure       = 26.976 A
USER  
USER    Estimated Free Energy of Binding    =  -11.88 kcal/mol  [=(1)+(2)+(3)-(4)]
USER    Estimated Inhibition Constant, Ki   =    1.95 nM (nanomolar)  [Temperature = 298.15 K]
USER    
USER    (1) Final Intermolecular Energy     =  -11.85 kcal/mol
USER        vdW + Hbond + desolv Energy     =  -11.64 kcal/mol
USER        Electrostatic Energy            =   -0.21 kcal/mol
USER    (2) Final Total Internal Energy     =   -6.45 kcal/mol
USER    (3) Torsional Free Energy           =   +4.18 kcal/mol
USER    (4) Unbound System's Energy         =   -2.25 kcal/mol
USER    
USER    
USER  
USER    DPF = nystatin.dpf
USER    NEWDPF move	nystatin.pdbqt
USER    NEWDPF about	31.688100 -15.344400 6.764500
USER    NEWDPF tran0	-2.617122 -22.245234 12.386925
USER    NEWDPF axisangle0	0.708690 0.705028 0.026354 -178.821281
USER    NEWDPF quaternion0	0.708652 0.704991 0.026353 -0.010286
USER    NEWDPF dihe0	76.57 -152.35 52.15 64.34 115.17 -10.52 -121.63 -124.72 75.74 -20.01 144.33 127.52 4.62 -43.44 
USER  
USER                              x       y       z    vdW   Elec        q     RMS 
ATOM      1  C3  UNK     1      -5.140 -17.476  16.754 -0.04 -0.01    +0.150    26.976
ATOM      2  C6  UNK     1      -5.335 -16.838  15.366 -0.02 -0.00    +0.068    26.976
ATOM      3  C7  UNK     1      -4.740 -18.947  16.712 -0.11 -0.00    +0.005    26.976
ATOM      4  C10 UNK     1      -6.304 -15.636  15.394 -0.00 -0.00    +0.137    26.976
ATOM      5  C11 UNK     1      -3.907 -19.438  15.801 -0.18 +0.00    -0.002    26.976
ATOM      6  C12 UNK     1      -6.294 -14.790  14.080 -0.00 -0.00    +0.144    26.976
ATOM      7  C13 UNK     1      -3.601 -20.728  15.737 -0.22 +0.00    -0.000    26.976
ATOM      8  C14 UNK     1      -6.524 -15.544  12.733 +0.00 -0.00    +0.142    26.976
ATOM      9  C16 UNK     1      -2.942 -21.269  14.718 -0.29 +0.00    +0.000    26.976
ATOM     10  C17 UNK     1      -5.187 -15.995  12.097 -0.00 +0.00    +0.111    26.976
ATOM     11  C18 UNK     1      -2.643 -22.562  14.660 -0.24 +0.00    +0.000    26.976
ATOM     12  C19 UNK     1      -5.342 -17.056  11.022 -0.00 +0.00    +0.131    26.976
ATOM     13  C20 UNK     1      -2.012 -23.120  13.633 -0.19 -0.00    -0.000    26.976
ATOM     14  C21 UNK     1      -4.722 -18.401  11.390 -0.01 +0.00    +0.112    26.976
ATOM     15  O9  UNK     1      -5.919 -16.821   9.926 +0.00 -0.00    -0.298    26.976
ATOM     16  C22 UNK     1      -1.683 -24.406  13.603 -0.34 -0.00    -0.004    26.976
ATOM     17  C23 UNK     1      -4.680 -19.408  10.221 -0.01 +0.00    +0.153    26.976
ATOM     18  C24 UNK     1      -0.954 -24.946  12.634 -0.43 -0.00    -0.026    26.976
ATOM     19  C25 UNK     1      -3.868 -20.688  10.545 -0.03 +0.00    +0.147    26.976
ATOM     20  C26 UNK     1      -0.540 -26.410  12.683 -0.53 +0.00    +0.031    26.976
ATOM     21  C27 UNK     1      -3.758 -21.575   9.287 -0.03 +0.00    +0.037    26.976
ATOM     22  C28 UNK     1      -0.848 -27.176  11.386 -0.51 +0.00    +0.031    26.976
ATOM     23  C29 UNK     1      -3.090 -22.940   9.556 -0.09 +0.00    +0.034    26.976
ATOM     24  C30 UNK     1      -0.360 -28.616  11.450 -0.42 -0.00    -0.026    26.976
ATOM     25  C31 UNK     1      -3.129 -23.812   8.282 -0.09 +0.00    +0.120    26.976
ATOM     26  C32 UNK     1       0.624 -29.050  10.672 -0.55 -0.00    -0.004    26.976
ATOM     27  C33 UNK     1      -2.368 -25.142   8.474 -0.20 +0.00    +0.063    26.976
ATOM     28  C34 UNK     1       1.102 -30.288  10.737 -0.48 -0.00    -0.004    26.976
ATOM     29  C35 UNK     1      -2.020 -25.856   7.143 -0.20 +0.00    +0.123    26.976
ATOM     30  C36 UNK     1       2.103 -30.713   9.974 -0.41 -0.00    -0.020    26.976
ATOM     31  C37 UNK     1      -1.400 -27.238   7.442 -0.29 +0.00    +0.064    26.976
ATOM     32  C38 UNK     1       2.673 -32.119  10.112 -0.31 +0.00    +0.033    26.976
ATOM     33  C39 UNK     1      -0.874 -27.997   6.200 -0.27 +0.00    +0.130    26.976
ATOM     34  C40 UNK     1       2.119 -33.147   9.071 -0.23 +0.00    +0.131    26.976
ATOM     35  C41 UNK     1       4.213 -32.051  10.222 -0.33 +0.00    +0.017    26.976
ATOM     36  C42 UNK     1      -0.143 -29.268   6.668 -0.30 +0.00    +0.142    26.976
ATOM     37  C43 UNK     1       2.088 -32.812   7.545 -0.20 +0.00    +0.040    26.976
ATOM     38  C44 UNK     1       0.506 -30.071   5.542 -0.16 +0.00    +0.261    26.976
ATOM     39  C45 UNK     1       0.857 -31.933   7.195 -0.26 +0.00    +0.134    26.976
ATOM     40  C46 UNK     1       3.412 -32.214   7.025 -0.28 +0.00    +0.015    26.976
ATOM     41  O16 UNK     1       1.043 -31.275   5.907 -0.10 -0.00    -0.316    26.976
ATOM     42  O17 UNK     1       0.601 -29.665   4.352 -0.07 -0.00    -0.265    26.976
ATOM     43  C47 UNK     1      -0.444 -32.759   7.125 -0.27 +0.00    +0.040    26.976
ATOM     44  O1  UNK     1      -4.134 -16.693  17.441 -0.04 +0.02    -0.349    26.976
ATOM     45  C1  UNK     1      -4.548 -15.638  18.345 -0.02 -0.01    +0.291    26.976
ATOM     46  C2  UNK     1      -4.238 -15.995  19.814 -0.02 -0.01    +0.206    26.976
ATOM     47  C4  UNK     1      -2.723 -16.158  20.057 -0.06 -0.02    +0.247    26.976
ATOM     48  C8  UNK     1      -1.960 -14.893  19.599 -0.04 -0.00    +0.179    26.976
ATOM     49  C5  UNK     1      -2.387 -14.344  18.213 -0.03 -0.00    +0.151    26.976
ATOM     50  O2  UNK     1      -3.836 -14.410  18.048 -0.00 +0.01    -0.351    26.976
ATOM     51  C9  UNK     1      -1.655 -15.014  17.036 -0.10 -0.00    +0.042    26.976
ATOM     52  O3  UNK     1      -4.950 -17.166  20.229 -0.01 +0.02    -0.388    26.976
ATOM     53  H5  UNK     1      -5.271 -17.637  19.456 +0.01 -0.01    +0.210    26.976
ATOM     54  N1  UNK     1      -2.175 -17.411  19.425 +0.41 +0.02    -0.070    26.976
ATOM     55  H11 UNK     1      -2.754 -18.220  19.693 -0.91 -0.11    +0.274    26.976
ATOM     56  H12 UNK     1      -1.205 -17.556  19.744 -1.01 -0.03    +0.274    26.976
ATOM     57  H13 UNK     1      -2.180 -17.305  18.401 -0.84 -0.08    +0.274    26.976
ATOM     58  O4  UNK     1      -2.173 -13.866  20.576 +0.00 +0.00    -0.391    26.976
ATOM     59  H19 UNK     1      -2.963 -13.366  20.356 +0.00 -0.00    +0.210    26.976
ATOM     60  O5  UNK     1      -7.621 -16.124  15.701 +0.00 +0.00    -0.394    26.976
ATOM     61  H21 UNK     1      -8.230 -15.812  15.027 +0.00 -0.00    +0.210    26.976
ATOM     62  C15 UNK     1      -7.196 -13.558  14.151 -0.01 +0.00    +0.182    26.976
ATOM     63  O7  UNK     1      -8.414 -13.708  14.443 +0.01 -0.00    -0.648    26.976
ATOM     64  O8  UNK     1      -6.758 -12.398  13.923 +0.01 -0.00    -0.648    26.976
ATOM     65  O6  UNK     1      -7.437 -16.645  12.871 +0.00 +0.00    -0.394    26.976
ATOM     66  H27 UNK     1      -7.933 -16.550  13.687 +0.00 -0.00    +0.210    26.976
ATOM     67  O10 UNK     1      -6.030 -19.776   9.893 +0.00 -0.00    -0.393    26.976
ATOM     68  H36 UNK     1      -6.547 -18.986   9.724 +0.00 +0.00    +0.210    26.976
ATOM     69  O11 UNK     1      -2.548 -20.349  10.994 -0.03 -0.00    -0.393    26.976
ATOM     70  H41 UNK     1      -2.031 -20.025  10.253 +0.04 +0.00    +0.210    26.976
ATOM     71  O12 UNK     1      -4.502 -24.087   7.956 -0.03 -0.00    -0.395    26.976
ATOM     72  H51 UNK     1      -4.539 -24.591   7.139 +0.04 +0.00    +0.210    26.976
ATOM     73  O13 UNK     1      -3.188 -26.007   6.324 -0.13 -0.00    -0.395    26.976
ATOM     74  H57 UNK     1      -2.945 -26.424   5.494 +0.05 +0.00    +0.210    26.976
ATOM     75  O14 UNK     1      -1.955 -28.383   5.337 -0.20 -0.00    -0.395    26.976
ATOM     76  H66 UNK     1      -2.731 -27.857   5.540 +0.04 +0.00    +0.210    26.976
ATOM     77  O15 UNK     1       2.794 -34.403   9.239 -0.12 -0.00    -0.394    26.976
ATOM     78  H68 UNK     1       3.591 -34.411   8.703 +0.07 +0.00    +0.210    26.976
TER
ENDMDL
MODEL        8
USER    Run = 8
USER    Cluster Rank = 5
USER    Number of conformations in this cluster = 1
USER  
USER    RMSD from reference structure       = 27.694 A
USER  
USER    Estimated Free Energy of Binding    =  -11.85 kcal/mol  [=(1)+(2)+(3)-(4)]
USER    Estimated Inhibition Constant, Ki   =    2.05 nM (nanomolar)  [Temperature = 298.15 K]
USER    
USER    (1) Final Intermolecular Energy     =  -11.89 kcal/mol
USER        vdW + Hbond + desolv Energy     =  -11.91 kcal/mol
USER        Electrostatic Energy            =   +0.01 kcal/mol
USER    (2) Final Total Internal Energy     =   -6.39 kcal/mol
USER    (3) Torsional Free Energy           =   +4.18 kcal/mol
USER    (4) Unbound System's Energy         =   -2.25 kcal/mol
USER    
USER    
USER  
USER    DPF = nystatin.dpf
USER    NEWDPF move	nystatin.pdbqt
USER    NEWDPF about	31.688100 -15.344400 6.764500
USER    NEWDPF tran0	2.718883 -31.340031 11.271683
USER    NEWDPF axisangle0	0.719331 -0.633707 -0.284565 -154.595414
USER    NEWDPF quaternion0	0.701726 -0.618198 -0.277601 -0.219885
USER    NEWDPF dihe0	106.24 -176.69 51.90 64.99 115.63 -163.17 -129.84 110.26 96.31 -119.45 148.42 137.94 15.48 177.10 
USER  
USER                              x       y       z    vdW   Elec        q     RMS 
ATOM      1  C3  UNK     1       7.744 -35.975  12.471 -0.07 +0.00    +0.150    27.694
ATOM      2  C6  UNK     1       7.076 -36.488  11.182 -0.16 +0.00    +0.068    27.694
ATOM      3  C7  UNK     1       7.303 -34.577  12.886 -0.07 +0.00    +0.005    27.694
ATOM      4  C10 UNK     1       7.933 -37.540  10.445 -0.13 +0.00    +0.137    27.694
ATOM      5  C11 UNK     1       6.052 -34.151  12.754 -0.11 -0.00    -0.002    27.694
ATOM      6  C12 UNK     1       7.166 -38.293   9.310 -0.24 +0.00    +0.144    27.694
ATOM      7  C13 UNK     1       5.681 -32.915  13.070 -0.15 -0.00    -0.000    27.694
ATOM      8  C14 UNK     1       6.451 -37.429   8.224 -0.28 +0.00    +0.142    27.694
ATOM      9  C16 UNK     1       4.495 -32.409  12.754 -0.20 +0.00    +0.000    27.694
ATOM     10  C17 UNK     1       4.982 -37.132   8.609 -0.32 +0.00    +0.111    27.694
ATOM     11  C18 UNK     1       4.134 -31.170  13.070 -0.32 +0.00    +0.000    27.694
ATOM     12  C19 UNK     1       4.357 -35.992   7.824 -0.35 +0.00    +0.131    27.694
ATOM     13  C20 UNK     1       2.963 -30.642  12.733 -0.39 -0.00    -0.000    27.694
ATOM     14  C21 UNK     1       4.008 -34.776   8.676 -0.25 +0.00    +0.112    27.694
ATOM     15  O9  UNK     1       4.138 -36.072   6.585 -0.12 -0.00    -0.298    27.694
ATOM     16  C22 UNK     1       2.597 -29.416  13.089 -0.43 -0.00    -0.004    27.694
ATOM     17  C23 UNK     1       3.175 -33.712   7.930 -0.17 +0.00    +0.153    27.694
ATOM     18  C24 UNK     1       1.387 -28.923  12.855 -0.51 -0.00    -0.026    27.694
ATOM     19  C25 UNK     1       2.654 -32.583   8.856 -0.28 +0.00    +0.147    27.694
ATOM     20  C26 UNK     1       0.991 -27.539  13.348 -0.55 +0.00    +0.031    27.694
ATOM     21  C27 UNK     1       1.721 -31.641   8.067 -0.32 +0.00    +0.037    27.694
ATOM     22  C28 UNK     1       0.368 -26.655  12.256 -0.55 +0.00    +0.031    27.694
ATOM     23  C29 UNK     1       1.272 -30.405   8.873 -0.39 +0.00    +0.034    27.694
ATOM     24  C30 UNK     1      -0.074 -25.306  12.804 -0.45 -0.00    -0.026    27.694
ATOM     25  C31 UNK     1       0.446 -29.456   7.978 -0.36 +0.00    +0.120    27.694
ATOM     26  C32 UNK     1      -1.356 -24.966  12.860 -0.43 -0.00    -0.004    27.694
ATOM     27  C33 UNK     1      -0.121 -28.262   8.777 -0.43 +0.00    +0.063    27.694
ATOM     28  C34 UNK     1      -1.776 -23.815  13.374 -0.24 -0.00    -0.004    27.694
ATOM     29  C35 UNK     1      -1.272 -27.520   8.052 -0.23 +0.00    +0.123    27.694
ATOM     30  C36 UNK     1      -3.060 -23.488  13.450 -0.24 -0.00    -0.020    27.694
ATOM     31  C37 UNK     1      -1.667 -26.262   8.855 -0.26 +0.00    +0.064    27.694
ATOM     32  C38 UNK     1      -3.518 -22.188  14.101 -0.19 +0.00    +0.033    27.694
ATOM     33  C39 UNK     1      -2.904 -25.507   8.314 -0.18 +0.00    +0.130    27.694
ATOM     34  C40 UNK     1      -3.809 -21.027  13.093 -0.10 +0.00    +0.131    27.694
ATOM     35  C41 UNK     1      -4.643 -22.481  15.119 -0.11 -0.00    +0.017    27.694
ATOM     36  C42 UNK     1      -3.272 -24.385   9.301 -0.14 +0.00    +0.142    27.694
ATOM     37  C43 UNK     1      -4.713 -21.256  11.840 -0.05 +0.00    +0.040    27.694
ATOM     38  C44 UNK     1      -4.536 -23.610   8.932 -0.05 +0.00    +0.261    27.694
ATOM     39  C45 UNK     1      -3.911 -21.927  10.692 -0.05 +0.00    +0.134    27.694
ATOM     40  C46 UNK     1      -6.025 -22.000  12.162 -0.02 +0.00    +0.015    27.694
ATOM     41  O16 UNK     1      -4.812 -22.521   9.712 -0.01 -0.00    -0.316    27.694
ATOM     42  O17 UNK     1      -5.323 -23.949   8.007 -0.04 -0.00    -0.265    27.694
ATOM     43  C47 UNK     1      -3.000 -20.923   9.957 -0.07 +0.00    +0.040    27.694
ATOM     44  O1  UNK     1       7.446 -36.935  13.513 -0.03 -0.00    -0.349    27.694
ATOM     45  C1  UNK     1       6.101 -37.465  13.629 -0.18 +0.00    +0.291    27.694
ATOM     46  C2  UNK     1       6.084 -39.002  13.503 -0.31 +0.01    +0.206    27.694
ATOM     47  C4  UNK     1       6.880 -39.681  14.637 -0.15 +0.01    +0.247    27.694
ATOM     48  C8  UNK     1       6.364 -39.212  16.017 -0.28 +0.01    +0.179    27.694
ATOM     49  C5  UNK     1       6.142 -37.682  16.142 -0.14 +0.00    +0.151    27.694
ATOM     50  O2  UNK     1       5.540 -37.140  14.927 -0.08 -0.01    -0.351    27.694
ATOM     51  C9  UNK     1       7.414 -36.908  16.535 -0.05 +0.00    +0.042    27.694
ATOM     52  O3  UNK     1       6.561 -39.426  12.221 -0.29 -0.01    -0.388    27.694
ATOM     53  H5  UNK     1       7.365 -38.947  12.003 +0.07 +0.00    +0.210    27.694
ATOM     54  N1  UNK     1       8.366 -39.482  14.489 -0.15 -0.00    -0.070    27.694
ATOM     55  H11 UNK     1       8.632 -39.564  13.497 +0.07 +0.01    +0.274    27.694
ATOM     56  H12 UNK     1       8.861 -40.198  15.042 +0.06 +0.01    +0.274    27.694
ATOM     57  H13 UNK     1       8.621 -38.549  14.841 +0.05 +0.01    +0.274    27.694
ATOM     58  O4  UNK     1       5.118 -39.871  16.275 -0.20 -0.03    -0.391    27.694
ATOM     59  H19 UNK     1       4.406 -39.227  16.284 +0.04 +0.01    +0.210    27.694
ATOM     60  O5  UNK     1       9.115 -36.892   9.947 -0.02 -0.00    -0.394    27.694
ATOM     61  H21 UNK     1       9.193 -37.074   9.007 +0.04 +0.00    +0.210    27.694
ATOM     62  C15 UNK     1       7.999 -39.387   8.644 -0.15 +0.00    +0.182    27.694
ATOM     63  O7  UNK     1       9.152 -39.103   8.217 +0.02 -0.01    -0.648    27.694
ATOM     64  O8  UNK     1       7.567 -40.563   8.506 -0.05 -0.01    -0.648    27.694
ATOM     65  O6  UNK     1       7.170 -36.221   7.926 -0.10 -0.00    -0.394    27.694
ATOM     66  H27 UNK     1       8.074 -36.302   8.236 +0.05 +0.00    +0.210    27.694
ATOM     67  O10 UNK     1       3.995 -33.136   6.900 -0.11 +0.00    -0.393    27.694
ATOM     68  H36 UNK     1       4.343 -33.832   6.338 +0.05 -0.00    +0.210    27.694
ATOM     69  O11 UNK     1       1.930 -33.133   9.966 -0.09 -0.00    -0.393    27.694
ATOM     70  H41 UNK     1       2.196 -32.688  10.774 +0.09 +0.00    +0.210    27.694
ATOM     71  O12 UNK     1       1.292 -28.969   6.922 -0.13 -0.01    -0.395    27.694
ATOM     72  H51 UNK     1       0.753 -28.522   6.264 +0.09 +0.00    +0.210    27.694
ATOM     73  O13 UNK     1      -0.885 -27.153   6.720 -0.10 -0.00    -0.395    27.694
ATOM     74  H57 UNK     1      -0.561 -27.928   6.255 +0.08 +0.00    +0.210    27.694
ATOM     75  O14 UNK     1      -2.628 -24.917   7.034 -0.05 -0.00    -0.395    27.694
ATOM     76  H66 UNK     1      -2.094 -25.519   6.512 +0.06 +0.00    +0.210    27.694
ATOM     77  O15 UNK     1      -4.318 -19.894  13.811 -0.02 +0.00    -0.394    27.694
ATOM     78  H68 UNK     1      -4.383 -19.142  13.217 +0.03 -0.00    +0.210    27.694
TER
ENDMDL
MODEL        4
USER    Run = 4
USER    Cluster Rank = 6
USER    Number of conformations in this cluster = 1
USER  
USER    RMSD from reference structure       = 29.788 A
USER  
USER    Estimated Free Energy of Binding    =  -11.81 kcal/mol  [=(1)+(2)+(3)-(4)]
USER    Estimated Inhibition Constant, Ki   =    2.19 nM (nanomolar)  [Temperature = 298.15 K]
USER    
USER    (1) Final Intermolecular Energy     =  -11.75 kcal/mol
USER        vdW + Hbond + desolv Energy     =  -11.73 kcal/mol
USER        Electrostatic Energy            =   -0.02 kcal/mol
USER    (2) Final Total Internal Energy     =   -6.50 kcal/mol
USER    (3) Torsional Free Energy           =   +4.18 kcal/mol
USER    (4) Unbound System's Energy         =   -2.25 kcal/mol
USER    
USER    
USER  
USER    DPF = nystatin.dpf
USER    NEWDPF move	nystatin.pdbqt
USER    NEWDPF about	31.688100 -15.344400 6.764500
USER    NEWDPF tran0	4.165218 -35.665493 9.909329
USER    NEWDPF axisangle0	0.135172 0.026518 -0.990467 154.892171
USER    NEWDPF quaternion0	0.131940 0.025884 -0.966787 0.217358
USER    NEWDPF dihe0	51.66 -157.35 36.45 72.82 110.86 -2.57 -80.78 107.54 71.87 -92.22 136.90 -116.84 0.00 135.04 
USER  
USER                              x       y       z    vdW   Elec        q     RMS 
ATOM      1  C3  UNK     1       2.064 -31.525   4.749 -0.18 +0.00    +0.150    29.788
ATOM      2  C6  UNK     1       1.279 -31.012   5.971 -0.24 +0.00    +0.068    29.788
ATOM      3  C7  UNK     1       3.168 -32.519   5.093 -0.23 +0.00    +0.005    29.788
ATOM      4  C10 UNK     1       0.652 -29.621   5.734 -0.21 +0.00    +0.137    29.788
ATOM      5  C11 UNK     1       3.034 -33.441   6.039 -0.28 -0.00    -0.002    29.788
ATOM      6  C12 UNK     1      -0.387 -29.205   6.826 -0.32 +0.00    +0.144    29.788
ATOM      7  C13 UNK     1       4.015 -34.272   6.370 -0.30 -0.00    -0.000    29.788
ATOM      8  C14 UNK     1       0.069 -29.265   8.317 -0.39 +0.00    +0.142    29.788
ATOM      9  C16 UNK     1       3.976 -35.054   7.443 -0.30 +0.00    +0.000    29.788
ATOM     10  C17 UNK     1      -0.256 -30.636   8.958 -0.37 -0.00    +0.111    29.788
ATOM     11  C18 UNK     1       4.964 -35.880   7.769 -0.37 +0.00    +0.000    29.788
ATOM     12  C19 UNK     1       0.497 -30.907  10.248 -0.38 +0.00    +0.131    29.788
ATOM     13  C20 UNK     1       4.949 -36.643   8.855 -0.42 -0.00    -0.000    29.788
ATOM     14  C21 UNK     1       1.488 -32.064  10.151 -0.29 +0.00    +0.112    29.788
ATOM     15  O9  UNK     1       0.293 -30.238  11.297 -0.33 -0.00    -0.298    29.788
ATOM     16  C22 UNK     1       5.925 -37.495   9.149 -0.39 -0.00    -0.004    29.788
ATOM     17  C23 UNK     1       2.087 -32.485  11.510 -0.20 +0.00    +0.153    29.788
ATOM     18  C24 UNK     1       5.865 -38.342  10.170 -0.29 -0.00    -0.026    29.788
ATOM     19  C25 UNK     1       2.929 -33.784  11.431 -0.16 +0.00    +0.147    29.788
ATOM     20  C26 UNK     1       6.977 -39.350  10.422 -0.37 +0.00    +0.031    29.788
ATOM     21  C27 UNK     1       3.375 -34.211  12.845 -0.13 +0.00    +0.037    29.788
ATOM     22  C28 UNK     1       7.488 -39.346  11.872 -0.33 +0.00    +0.031    29.788
ATOM     23  C29 UNK     1       4.340 -35.414  12.847 -0.17 +0.00    +0.034    29.788
ATOM     24  C30 UNK     1       8.551 -40.411  12.100 -0.23 -0.00    -0.026    29.788
ATOM     25  C31 UNK     1       4.833 -35.700  14.282 -0.10 +0.00    +0.120    29.788
ATOM     26  C32 UNK     1       8.332 -41.451  12.896 -0.27 -0.00    -0.004    29.788
ATOM     27  C33 UNK     1       5.711 -36.969  14.345 -0.19 +0.00    +0.063    29.788
ATOM     28  C34 UNK     1       9.223 -42.420  13.079 -0.22 -0.00    -0.004    29.788
ATOM     29  C35 UNK     1       5.887 -37.532  15.778 -0.16 +0.00    +0.123    29.788
ATOM     30  C36 UNK     1       8.992 -43.471  13.857 -0.21 -0.00    -0.020    29.788
ATOM     31  C37 UNK     1       6.894 -38.701  15.757 -0.24 +0.00    +0.064    29.788
ATOM     32  C38 UNK     1      10.006 -44.598  14.001 -0.24 +0.00    +0.033    29.788
ATOM     33  C39 UNK     1       7.052 -39.447  17.103 -0.20 +0.01    +0.130    29.788
ATOM     34  C40 UNK     1      10.910 -44.498  15.275 -0.17 +0.00    +0.131    29.788
ATOM     35  C41 UNK     1       9.308 -45.960  13.789 -0.29 +0.00    +0.017    29.788
ATOM     36  C42 UNK     1       7.953 -40.677  16.887 -0.16 +0.01    +0.142    29.788
ATOM     37  C43 UNK     1      10.287 -44.257  16.687 -0.16 +0.00    +0.040    29.788
ATOM     38  C44 UNK     1       8.123 -41.558  18.123 -0.12 +0.02    +0.261    29.788
ATOM     39  C45 UNK     1       9.971 -42.753  16.906 -0.11 +0.01    +0.134    29.788
ATOM     40  C46 UNK     1       9.078 -45.168  16.984 -0.20 +0.00    +0.015    29.788
ATOM     41  O16 UNK     1       9.025 -42.579  18.003 -0.10 -0.02    -0.316    29.788
ATOM     42  O17 UNK     1       7.459 -41.415  19.186 -0.13 -0.03    -0.265    29.788
ATOM     43  C47 UNK     1      11.237 -41.935  17.232 -0.05 +0.00    +0.040    29.788
ATOM     44  O1  UNK     1       1.101 -32.123   3.849 -0.05 -0.00    -0.349    29.788
ATOM     45  C1  UNK     1       0.719 -33.510   4.032 -0.13 +0.00    +0.291    29.788
ATOM     46  C2  UNK     1      -0.698 -33.634   4.627 -0.20 +0.00    +0.206    29.788
ATOM     47  C4  UNK     1      -1.770 -33.046   3.686 -0.20 +0.00    +0.247    29.788
ATOM     48  C8  UNK     1      -1.676 -33.693   2.285 -0.13 +0.00    +0.179    29.788
ATOM     49  C5  UNK     1      -0.238 -33.805   1.717 -0.08 +0.00    +0.151    29.788
ATOM     50  O2  UNK     1       0.706 -34.202   2.757 -0.08 -0.00    -0.351    29.788
ATOM     51  C9  UNK     1       0.233 -32.536   0.983 -0.06 +0.00    +0.042    29.788
ATOM     52  O3  UNK     1      -0.774 -33.033   5.925 -0.15 -0.00    -0.388    29.788
ATOM     53  H5  UNK     1       0.107 -32.792   6.219 +0.08 +0.00    +0.210    29.788
ATOM     54  N1  UNK     1      -1.709 -31.541   3.621 -0.25 -0.00    -0.070    29.788
ATOM     55  H11 UNK     1      -0.820 -31.246   3.191 +0.06 +0.00    +0.274    29.788
ATOM     56  H12 UNK     1      -1.778 -31.158   4.576 +0.07 -0.00    +0.274    29.788
ATOM     57  H13 UNK     1      -2.499 -31.192   3.061 +0.05 +0.00    +0.274    29.788
ATOM     58  O4  UNK     1      -2.234 -35.010   2.364 -0.06 -0.00    -0.391    29.788
ATOM     59  H19 UNK     1      -1.537 -35.649   2.530 +0.04 -0.00    +0.210    29.788
ATOM     60  O5  UNK     1       1.715 -28.660   5.620 -0.10 -0.01    -0.394    29.788
ATOM     61  H21 UNK     1       1.439 -27.844   6.046 +0.08 +0.00    +0.210    29.788
ATOM     62  C15 UNK     1      -1.060 -27.864   6.536 -0.27 +0.00    +0.182    29.788
ATOM     63  O7  UNK     1      -0.351 -26.820   6.496 +0.02 -0.01    -0.648    29.788
ATOM     64  O8  UNK     1      -2.301 -27.770   6.339 -0.12 -0.00    -0.648    29.788
ATOM     65  O6  UNK     1       1.454 -28.925   8.480 -0.16 -0.01    -0.394    29.788
ATOM     66  H27 UNK     1       1.733 -28.360   7.755 +0.10 +0.00    +0.210    29.788
ATOM     67  O10 UNK     1       2.917 -31.414  11.989 -0.10 -0.01    -0.393    29.788
ATOM     68  H36 UNK     1       2.432 -30.587  11.946 +0.11 +0.00    +0.210    29.788
ATOM     69  O11 UNK     1       2.165 -34.847  10.842 -0.11 -0.01    -0.393    29.788
ATOM     70  H41 UNK     1       1.418 -35.055  11.406 +0.07 +0.00    +0.210    29.788
ATOM     71  O12 UNK     1       5.591 -34.568  14.740 -0.01 -0.00    -0.395    29.788
ATOM     72  H51 UNK     1       6.337 -34.876  15.261 +0.02 +0.00    +0.210    29.788
ATOM     73  O13 UNK     1       6.337 -36.510  16.677 -0.01 -0.00    -0.395    29.788
ATOM     74  H57 UNK     1       5.776 -35.736  16.590 +0.02 +0.00    +0.210    29.788
ATOM     75  O14 UNK     1       7.661 -38.603  18.092 -0.02 -0.01    -0.395    29.788
ATOM     76  H66 UNK     1       7.635 -37.691  17.795 +0.02 +0.00    +0.210    29.788
ATOM     77  O15 UNK     1      11.754 -45.656  15.349 -0.05 -0.01    -0.394    29.788
ATOM     78  H68 UNK     1      12.077 -45.758  16.248 +0.04 +0.00    +0.210    29.788
TER
ENDMDL
MODEL        5
USER    Run = 5
USER    Cluster Rank = 7
USER    Number of conformations in this cluster = 1
USER  
USER    RMSD from reference structure       = 35.837 A
USER  
USER    Estimated Free Energy of Binding    =  -11.78 kcal/mol  [=(1)+(2)+(3)-(4)]
USER    Estimated Inhibition Constant, Ki   =    2.32 nM (nanomolar)  [Temperature = 298.15 K]
USER    
USER    (1) Final Intermolecular Energy     =  -11.45 kcal/mol
USER        vdW + Hbond + desolv Energy     =  -11.44 kcal/mol
USER        Electrostatic Energy            =   -0.01 kcal/mol
USER    (2) Final Total Internal Energy     =   -6.76 kcal/mol
USER    (3) Torsional Free Energy           =   +4.18 kcal/mol
USER    (4) Unbound System's Energy         =   -2.25 kcal/mol
USER    
USER    
USER  
USER    DPF = nystatin.dpf
USER    NEWDPF move	nystatin.pdbqt
USER    NEWDPF about	31.688100 -15.344400 6.764500
USER    NEWDPF tran0	-5.247833 -35.421927 11.395693
USER    NEWDPF axisangle0	-0.257560 -0.652615 0.712571 -52.065206
USER    NEWDPF quaternion0	-0.113038 -0.286421 0.312735 -0.898544
USER    NEWDPF dihe0	86.08 -166.86 56.44 71.80 110.98 -145.63 -76.64 105.94 94.64 108.71 155.56 120.42 40.83 179.85 
USER  
USER                              x       y       z    vdW   Elec        q     RMS 
ATOM      1  C3  UNK     1       1.582 -34.291  10.887 -0.21 +0.00    +0.150    35.837
ATOM      2  C6  UNK     1       1.290 -34.089  12.385 -0.21 +0.00    +0.068    35.837
ATOM      3  C7  UNK     1       0.422 -34.896  10.104 -0.24 +0.00    +0.005    35.837
ATOM      4  C10 UNK     1       2.571 -34.098  13.248 -0.11 +0.00    +0.137    35.837
ATOM      5  C11 UNK     1      -0.846 -34.578  10.340 -0.31 -0.00    -0.002    35.837
ATOM      6  C12 UNK     1       2.345 -33.603  14.714 -0.10 +0.00    +0.144    35.837
ATOM      7  C13 UNK     1      -1.856 -35.143   9.690 -0.33 -0.00    -0.000    35.837
ATOM      8  C14 UNK     1       1.218 -34.294  15.544 -0.12 +0.00    +0.142    35.837
ATOM      9  C16 UNK     1      -3.126 -34.997  10.050 -0.27 +0.00    +0.000    35.837
ATOM     10  C17 UNK     1      -0.131 -33.549  15.404 -0.13 +0.01    +0.111    35.837
ATOM     11  C18 UNK     1      -4.131 -35.570   9.397 -0.24 +0.00    +0.000    35.837
ATOM     12  C19 UNK     1      -1.335 -34.363  15.843 -0.20 +0.01    +0.131    35.837
ATOM     13  C20 UNK     1      -5.401 -35.455   9.765 -0.24 -0.00    -0.000    35.837
ATOM     14  C21 UNK     1      -2.295 -34.704  14.708 -0.17 +0.00    +0.112    35.837
ATOM     15  O9  UNK     1      -1.513 -34.702  17.044 -0.11 -0.01    -0.298    35.837
ATOM     16  C22 UNK     1      -6.401 -36.000   9.081 -0.18 -0.00    -0.004    35.837
ATOM     17  C23 UNK     1      -3.622 -35.335  15.183 -0.14 +0.00    +0.153    35.837
ATOM     18  C24 UNK     1      -7.679 -35.796   9.377 -0.14 -0.00    -0.026    35.837
ATOM     19  C25 UNK     1      -4.668 -35.487  14.050 -0.15 +0.00    +0.147    35.837
ATOM     20  C26 UNK     1      -8.789 -36.382   8.518 -0.18 +0.00    +0.031    35.837
ATOM     21  C27 UNK     1      -6.005 -35.992  14.630 -0.09 +0.00    +0.037    35.837
ATOM     22  C28 UNK     1      -9.854 -37.139   9.328 -0.28 +0.00    +0.031    35.837
ATOM     23  C29 UNK     1      -7.061 -36.311  13.551 -0.07 +0.00    +0.034    35.837
ATOM     24  C30 UNK     1     -10.980 -37.652   8.442 -0.36 -0.00    -0.026    35.837
ATOM     25  C31 UNK     1      -8.320 -36.923  14.202 -0.07 +0.00    +0.120    35.837
ATOM     26  C32 UNK     1     -12.215 -37.177   8.545 -0.27 -0.00    -0.004    35.837
ATOM     27  C33 UNK     1      -9.447 -37.150  13.170 -0.16 +0.00    +0.063    35.837
ATOM     28  C34 UNK     1     -13.208 -37.572   7.755 -0.27 -0.00    -0.004    35.837
ATOM     29  C35 UNK     1     -10.841 -37.365  13.810 -0.20 +0.00    +0.123    35.837
ATOM     30  C36 UNK     1     -14.438 -37.078   7.845 -0.17 -0.00    -0.020    35.837
ATOM     31  C37 UNK     1     -11.866 -37.731  12.714 -0.31 +0.00    +0.064    35.837
ATOM     32  C38 UNK     1     -15.543 -37.503   6.886 -0.15 +0.00    +0.033    35.837
ATOM     33  C39 UNK     1     -13.331 -37.830  13.201 -0.31 +0.00    +0.130    35.837
ATOM     34  C40 UNK     1     -16.497 -38.608   7.448 -0.20 +0.00    +0.131    35.837
ATOM     35  C41 UNK     1     -16.244 -36.253   6.308 -0.13 +0.00    +0.017    35.837
ATOM     36  C42 UNK     1     -14.246 -38.035  11.981 -0.24 +0.00    +0.142    35.837
ATOM     37  C43 UNK     1     -17.145 -38.471   8.863 -0.26 +0.00    +0.040    35.837
ATOM     38  C44 UNK     1     -15.738 -38.063  12.311 -0.24 +0.01    +0.261    35.837
ATOM     39  C45 UNK     1     -16.147 -38.897   9.974 -0.29 +0.00    +0.134    35.837
ATOM     40  C46 UNK     1     -17.760 -37.079   9.119 -0.20 +0.00    +0.015    35.837
ATOM     41  O16 UNK     1     -16.568 -38.380  11.271 -0.18 -0.01    -0.316    35.837
ATOM     42  O17 UNK     1     -16.214 -37.772  13.442 -0.18 -0.01    -0.265    35.837
ATOM     43  C47 UNK     1     -16.025 -40.431  10.087 -0.34 +0.00    +0.040    35.837
ATOM     44  O1  UNK     1       1.942 -32.996  10.348 -0.10 -0.00    -0.349    35.837
ATOM     45  C1  UNK     1       1.204 -31.820  10.768 -0.23 +0.00    +0.291    35.837
ATOM     46  C2  UNK     1       2.108 -30.571  10.814 -0.31 +0.00    +0.206    35.837
ATOM     47  C4  UNK     1       2.668 -30.215   9.421 -0.30 +0.00    +0.247    35.837
ATOM     48  C8  UNK     1       1.519 -30.056   8.398 -0.32 +0.00    +0.179    35.837
ATOM     49  C5  UNK     1       0.443 -31.172   8.452 -0.34 +0.00    +0.151    35.837
ATOM     50  O2  UNK     1       0.134 -31.535   9.832 -0.21 -0.00    -0.351    35.837
ATOM     51  C9  UNK     1       0.803 -32.411   7.611 -0.27 +0.00    +0.042    35.837
ATOM     52  O3  UNK     1       3.168 -30.727  11.765 -0.18 -0.01    -0.388    35.837
ATOM     53  H5  UNK     1       3.358 -31.661  11.882 +0.09 +0.00    +0.210    35.837
ATOM     54  N1  UNK     1       3.709 -31.200   8.956 -0.37 -0.00    -0.070    35.837
ATOM     55  H11 UNK     1       4.477 -31.247   9.641 +0.09 +0.00    +0.274    35.837
ATOM     56  H12 UNK     1       4.077 -30.899   8.041 +0.09 +0.00    +0.274    35.837
ATOM     57  H13 UNK     1       3.277 -32.129   8.855 +0.11 +0.00    +0.274    35.837
ATOM     58  O4  UNK     1       0.876 -28.799   8.642 -0.17 -0.01    -0.391    35.837
ATOM     59  H19 UNK     1       0.044 -28.942   9.100 +0.10 +0.00    +0.210    35.837
ATOM     60  O5  UNK     1       3.129 -35.422  13.214 -0.06 -0.01    -0.394    35.837
ATOM     61  H21 UNK     1       3.196 -35.750  14.115 +0.05 +0.00    +0.210    35.837
ATOM     62  C15 UNK     1       3.634 -33.539  15.532 -0.04 +0.00    +0.182    35.837
ATOM     63  O7  UNK     1       4.451 -34.498  15.463 +0.02 -0.01    -0.648    35.837
ATOM     64  O8  UNK     1       3.903 -32.557  16.276 +0.02 -0.01    -0.648    35.837
ATOM     65  O6  UNK     1       1.082 -35.689  15.228 -0.03 -0.01    -0.394    35.837
ATOM     66  H27 UNK     1       1.912 -36.020  14.878 +0.05 +0.00    +0.210    35.837
ATOM     67  O10 UNK     1      -3.334 -36.630  15.737 -0.02 -0.01    -0.393    35.837
ATOM     68  H36 UNK     1      -2.617 -36.557  16.370 +0.03 +0.00    +0.210    35.837
ATOM     69  O11 UNK     1      -4.889 -34.230  13.393 -0.17 -0.01    -0.393    35.837
ATOM     70  H41 UNK     1      -5.174 -34.386  12.490 +0.06 +0.00    +0.210    35.837
ATOM     71  O12 UNK     1      -7.961 -38.178  14.804 -0.04 -0.00    -0.395    35.837
ATOM     72  H51 UNK     1      -8.647 -38.826  14.622 +0.04 -0.00    +0.210    35.837
ATOM     73  O13 UNK     1     -10.795 -38.396  14.805 -0.12 +0.00    -0.395    35.837
ATOM     74  H57 UNK     1     -10.055 -38.238  15.396 +0.04 -0.00    +0.210    35.837
ATOM     75  O14 UNK     1     -13.502 -38.942  14.094 -0.22 -0.01    -0.395    35.837
ATOM     76  H66 UNK     1     -12.726 -39.029  14.651 +0.06 +0.00    +0.210    35.837
ATOM     77  O15 UNK     1     -17.545 -38.857   6.499 -0.11 -0.00    -0.394    35.837
ATOM     78  H68 UNK     1     -17.178 -38.851   5.611 +0.05 +0.00    +0.210    35.837
TER
ENDMDL
MODEL        2
USER    Run = 2
USER    Cluster Rank = 8
USER    Number of conformations in this cluster = 1
USER  
USER    RMSD from reference structure       = 8.882 A
USER  
USER    Estimated Free Energy of Binding    =  -10.70 kcal/mol  [=(1)+(2)+(3)-(4)]
USER    Estimated Inhibition Constant, Ki   =   14.26 nM (nanomolar)  [Temperature = 298.15 K]
USER    
USER    (1) Final Intermolecular Energy     =  -10.80 kcal/mol
USER        vdW + Hbond + desolv Energy     =  -10.77 kcal/mol
USER        Electrostatic Energy            =   -0.03 kcal/mol
USER    (2) Final Total Internal Energy     =   -6.33 kcal/mol
USER    (3) Torsional Free Energy           =   +4.18 kcal/mol
USER    (4) Unbound System's Energy         =   -2.25 kcal/mol
USER    
USER    
USER  
USER    DPF = nystatin.dpf
USER    NEWDPF move	nystatin.pdbqt
USER    NEWDPF about	31.688100 -15.344400 6.764500
USER    NEWDPF tran0	35.910564 -10.605987 11.184925
USER    NEWDPF axisangle0	-0.940778 0.337541 -0.031679 168.698519
USER    NEWDPF quaternion0	-0.936206 0.335900 -0.031525 0.098464
USER    NEWDPF dihe0	57.69 -171.94 52.45 74.34 116.45 -173.35 -131.64 38.57 98.73 72.61 147.81 -174.86 55.31 131.64 
USER  
USER                              x       y       z    vdW   Elec        q     RMS 
ATOM      1  C3  UNK     1      41.166 -10.977  15.704 -0.16 -0.00    +0.150     8.882
ATOM      2  C6  UNK     1      41.796 -11.435  14.375 -0.16 -0.00    +0.068     8.882
ATOM      3  C7  UNK     1      39.774 -10.374  15.557 -0.35 +0.00    +0.005     8.882
ATOM      4  C10 UNK     1      43.339 -11.436  14.416 -0.09 -0.00    +0.137     8.882
ATOM      5  C11 UNK     1      38.875 -10.846  14.701 -0.43 -0.00    -0.002     8.882
ATOM      6  C12 UNK     1      44.000 -12.170  13.205 -0.06 -0.00    +0.144     8.882
ATOM      7  C13 UNK     1      37.681 -10.287  14.540 -0.31 -0.00    -0.000     8.882
ATOM      8  C14 UNK     1      43.571 -11.729  11.770 -0.13 -0.00    +0.142     8.882
ATOM      9  C16 UNK     1      36.854 -10.610  13.552 -0.55 +0.00    +0.000     8.882
ATOM     10  C17 UNK     1      42.383 -12.571  11.246 -0.12 -0.00    +0.111     8.882
ATOM     11  C18 UNK     1      35.663 -10.043  13.396 -0.56 +0.00    +0.000     8.882
ATOM     12  C19 UNK     1      41.666 -11.954  10.058 -0.23 +0.00    +0.131     8.882
ATOM     13  C20 UNK     1      34.840 -10.336  12.395 -0.52 -0.00    -0.000     8.882
ATOM     14  C21 UNK     1      40.229 -11.537  10.355 -0.30 +0.00    +0.112     8.882
ATOM     15  O9  UNK     1      42.221 -11.824   8.934 -0.19 -0.00    -0.298     8.882
ATOM     16  C22 UNK     1      33.635  -9.792  12.272 -0.40 -0.00    -0.004     8.882
ATOM     17  C23 UNK     1      39.431 -11.119   9.101 -0.30 +0.00    +0.153     8.882
ATOM     18  C24 UNK     1      32.764 -10.163  11.341 -0.20 -0.00    -0.026     8.882
ATOM     19  C25 UNK     1      37.923 -10.896   9.382 -0.32 +0.00    +0.147     8.882
ATOM     20  C26 UNK     1      31.367  -9.561  11.286 -0.24 +0.00    +0.031     8.882
ATOM     21  C27 UNK     1      37.176 -10.619   8.061 -0.32 +0.00    +0.037     8.882
ATOM     22  C28 UNK     1      30.978  -9.045   9.892 -0.15 +0.00    +0.031     8.882
ATOM     23  C29 UNK     1      35.693 -10.241   8.262 -0.18 +0.00    +0.034     8.882
ATOM     24  C30 UNK     1      29.552  -8.513   9.863 -0.11 -0.00    -0.026     8.882
ATOM     25  C31 UNK     1      35.052  -9.861   6.910 -0.20 +0.00    +0.120     8.882
ATOM     26  C32 UNK     1      28.601  -9.116   9.161 -0.11 -0.00    -0.004     8.882
ATOM     27  C33 UNK     1      33.538  -9.588   7.050 -0.21 +0.00    +0.063     8.882
ATOM     28  C34 UNK     1      27.338  -8.702   9.153 -0.15 -0.00    -0.004     8.882
ATOM     29  C35 UNK     1      32.776  -9.611   5.701 -0.15 +0.00    +0.123     8.882
ATOM     30  C36 UNK     1      26.383  -9.320   8.468 -0.12 -0.00    -0.020     8.882
ATOM     31  C37 UNK     1      31.310  -9.181   5.925 -0.10 +0.00    +0.064     8.882
ATOM     32  C38 UNK     1      24.931  -8.861   8.525 -0.24 +0.00    +0.033     8.882
ATOM     33  C39 UNK     1      30.400  -9.301   4.679 -0.06 +0.00    +0.130     8.882
ATOM     34  C40 UNK     1      24.492  -7.954   7.328 -0.23 -0.00    +0.131     8.882
ATOM     35  C41 UNK     1      24.012 -10.069   8.814 -0.16 +0.00    +0.017     8.882
ATOM     36  C42 UNK     1      28.948  -8.999   5.095 -0.02 +0.00    +0.142     8.882
ATOM     37  C43 UNK     1      24.784  -8.371   5.851 -0.12 -0.00    +0.040     8.882
ATOM     38  C44 UNK     1      27.925  -9.168   3.973 -0.01 +0.00    +0.261     8.882
ATOM     39  C45 UNK     1      26.246  -8.027   5.456 -0.06 +0.00    +0.134     8.882
ATOM     40  C46 UNK     1      24.416  -9.839   5.548 -0.05 +0.00    +0.015     8.882
ATOM     41  O16 UNK     1      26.649  -8.776   4.271 -0.01 -0.00    -0.316     8.882
ATOM     42  O17 UNK     1      28.190  -9.675   2.849 -0.01 -0.00    -0.265     8.882
ATOM     43  C47 UNK     1      26.427  -6.524   5.156 -0.10 +0.00    +0.040     8.882
ATOM     44  O1  UNK     1      41.133 -12.132  16.576 -0.03 +0.01    -0.349     8.882
ATOM     45  C1  UNK     1      39.978 -13.007  16.555 -0.13 -0.02    +0.291     8.882
ATOM     46  C2  UNK     1      40.298 -14.385  17.171 -0.10 -0.02    +0.206     8.882
ATOM     47  C4  UNK     1      40.687 -14.272  18.660 -0.04 -0.01    +0.247     8.882
ATOM     48  C8  UNK     1      39.588 -13.530  19.454 -0.07 -0.01    +0.179     8.882
ATOM     49  C5  UNK     1      39.054 -12.242  18.775 -0.12 -0.02    +0.151     8.882
ATOM     50  O2  UNK     1      38.897 -12.436  17.336 -0.13 +0.06    -0.351     8.882
ATOM     51  C9  UNK     1      39.896 -10.991  19.086 -0.08 -0.00    +0.042     8.882
ATOM     52  O3  UNK     1      41.317 -15.065  16.428 -0.01 +0.01    -0.388     8.882
ATOM     53  H5  UNK     1      41.567 -14.535  15.667 +0.02 -0.01    +0.210     8.882
ATOM     54  N1  UNK     1      42.044 -13.645  18.849 -0.01 +0.00    -0.070     8.882
ATOM     55  H11 UNK     1      42.399 -13.301  17.945 +0.01 -0.01    +0.274     8.882
ATOM     56  H12 UNK     1      42.694 -14.350  19.231 +0.01 -0.00    +0.274     8.882
ATOM     57  H13 UNK     1      41.968 -12.863  19.513 +0.01 -0.01    +0.274     8.882
ATOM     58  O4  UNK     1      38.488 -14.430  19.640 -0.04 +0.02    -0.391     8.882
ATOM     59  H19 UNK     1      37.749 -14.159  19.090 -1.08 -0.03    +0.210     8.882
ATOM     60  O5  UNK     1      43.789 -10.075  14.521 -0.06 +0.00    -0.394     8.882
ATOM     61  H21 UNK     1      44.418  -9.903  13.815 +0.06 -0.00    +0.210     8.882
ATOM     62  C15 UNK     1      45.524 -12.235  13.299 -0.02 -0.00    +0.182     8.882
ATOM     63  O7  UNK     1      46.170 -11.170  13.502 +0.01 +0.00    -0.648     8.882
ATOM     64  O8  UNK     1      46.154 -13.320  13.177 +0.00 +0.00    -0.648     8.882
ATOM     65  O6  UNK     1      43.293 -10.322  11.691 -0.18 +0.00    -0.394     8.882
ATOM     66  H27 UNK     1      43.800  -9.856  12.360 +0.07 -0.00    +0.210     8.882
ATOM     67  O10 UNK     1      40.000  -9.904   8.587 -0.24 -0.01    -0.393     8.882
ATOM     68  H36 UNK     1      40.937 -10.031   8.424 +0.04 +0.01    +0.210     8.882
ATOM     69  O11 UNK     1      37.349 -12.052  10.009 -0.23 -0.01    -0.393     8.882
ATOM     70  H41 UNK     1      36.920 -11.792  10.827 +0.09 +0.01    +0.210     8.882
ATOM     71  O12 UNK     1      35.707  -8.686   6.405 -0.03 -0.00    -0.395     8.882
ATOM     72  H51 UNK     1      35.464  -8.557   5.485 +0.04 +0.00    +0.210     8.882
ATOM     73  O13 UNK     1      33.402  -8.746   4.744 -0.02 -0.00    -0.395     8.882
ATOM     74  H57 UNK     1      33.971  -8.122   5.201 +0.03 +0.00    +0.210     8.882
ATOM     75  O14 UNK     1      30.789  -8.362   3.665 -0.00 -0.00    -0.395     8.882
ATOM     76  H66 UNK     1      31.746  -8.335   3.603 +0.02 +0.00    +0.210     8.882
ATOM     77  O15 UNK     1      23.091  -7.665   7.443 -0.13 +0.01    -0.394     8.882
ATOM     78  H68 UNK     1      22.755  -8.037   8.262 +0.05 -0.00    +0.210     8.882
TER
ENDMDL
MODEL        3
USER    Run = 3
USER    Cluster Rank = 9
USER    Number of conformations in this cluster = 1
USER  
USER    RMSD from reference structure       = 66.738 A
USER  
USER    Estimated Free Energy of Binding    =  -10.59 kcal/mol  [=(1)+(2)+(3)-(4)]
USER    Estimated Inhibition Constant, Ki   =   17.37 nM (nanomolar)  [Temperature = 298.15 K]
USER    
USER    (1) Final Intermolecular Energy     =  -10.45 kcal/mol
USER        vdW + Hbond + desolv Energy     =  -10.46 kcal/mol
USER        Electrostatic Energy            =   +0.00 kcal/mol
USER    (2) Final Total Internal Energy     =   -6.56 kcal/mol
USER    (3) Torsional Free Energy           =   +4.18 kcal/mol
USER    (4) Unbound System's Energy         =   -2.25 kcal/mol
USER    
USER    
USER  
USER    DPF = nystatin.dpf
USER    NEWDPF move	nystatin.pdbqt
USER    NEWDPF about	31.688100 -15.344400 6.764500
USER    NEWDPF tran0	-29.885763 32.496735 7.457497
USER    NEWDPF axisangle0	0.762402 0.636155 -0.118535 -136.007838
USER    NEWDPF quaternion0	0.706906 0.589849 -0.109907 -0.374543
USER    NEWDPF dihe0	88.55 -160.65 44.38 72.97 119.69 179.89 -112.25 -63.56 119.39 -122.79 133.79 1.06 79.57 43.66 
USER  
USER                              x       y       z    vdW   Elec        q     RMS 
ATOM      1  C3  UNK     1     -31.908  39.091   6.677 -0.01 +0.00    +0.150    66.738
ATOM      2  C6  UNK     1     -31.589  38.636   5.241 -0.00 +0.00    +0.068    66.738
ATOM      3  C7  UNK     1     -31.940  37.957   7.696 -0.01 +0.00    +0.005    66.738
ATOM      4  C10 UNK     1     -32.160  39.593   4.172 -0.00 +0.00    +0.137    66.738
ATOM      5  C11 UNK     1     -31.090  36.937   7.660 -0.02 -0.00    -0.002    66.738
ATOM      6  C12 UNK     1     -31.607  39.329   2.733 +0.00 +0.00    +0.144    66.738
ATOM      7  C13 UNK     1     -31.153  35.926   8.519 -0.04 -0.00    -0.000    66.738
ATOM      8  C14 UNK     1     -31.721  37.878   2.170 -0.00 +0.00    +0.142    66.738
ATOM      9  C16 UNK     1     -30.455  34.805   8.375 -0.07 +0.00    +0.000    66.738
ATOM     10  C17 UNK     1     -30.455  37.045   2.483 -0.00 +0.00    +0.111    66.738
ATOM     11  C18 UNK     1     -30.527  33.797   9.237 -0.10 +0.00    +0.000    66.738
ATOM     12  C19 UNK     1     -30.647  35.547   2.326 -0.01 +0.00    +0.131    66.738
ATOM     13  C20 UNK     1     -29.858  32.660   9.087 -0.14 -0.00    -0.000    66.738
ATOM     14  C21 UNK     1     -30.534  34.771   3.635 -0.04 +0.00    +0.112    66.738
ATOM     15  O9  UNK     1     -30.864  35.012   1.205 -0.00 -0.00    -0.298    66.738
ATOM     16  C22 UNK     1     -29.906  31.674   9.976 -0.21 -0.00    -0.004    66.738
ATOM     17  C23 UNK     1     -30.506  33.239   3.450 -0.08 +0.00    +0.153    66.738
ATOM     18  C24 UNK     1     -29.154  30.583   9.892 -0.26 -0.00    -0.026    66.738
ATOM     19  C25 UNK     1     -30.185  32.470   4.757 -0.14 -0.00    +0.147    66.738
ATOM     20  C26 UNK     1     -29.191  29.515  10.975 -0.35 +0.00    +0.031    66.738
ATOM     21  C27 UNK     1     -30.040  30.963   4.461 -0.19 -0.00    +0.037    66.738
ATOM     22  C28 UNK     1     -29.392  28.094  10.426 -0.51 -0.00    +0.031    66.738
ATOM     23  C29 UNK     1     -29.864  30.102   5.729 -0.24 -0.00    +0.034    66.738
ATOM     24  C30 UNK     1     -29.357  27.050  11.533 -0.54 +0.00    -0.026    66.738
ATOM     25  C31 UNK     1     -29.850  28.604   5.358 -0.26 +0.00    +0.120    66.738
ATOM     26  C32 UNK     1     -28.382  26.152  11.609 -0.60 -0.00    -0.004    66.738
ATOM     27  C33 UNK     1     -29.559  27.712   6.585 -0.27 +0.00    +0.063    66.738
ATOM     28  C34 UNK     1     -28.300  25.258  12.588 -0.59 -0.00    -0.004    66.738
ATOM     29  C35 UNK     1     -29.128  26.270   6.217 -0.32 -0.00    +0.123    66.738
ATOM     30  C36 UNK     1     -27.311  24.376  12.676 -0.57 -0.00    -0.020    66.738
ATOM     31  C37 UNK     1     -29.008  25.419   7.500 -0.39 -0.00    +0.064    66.738
ATOM     32  C38 UNK     1     -27.207  23.402  13.843 -0.45 +0.00    +0.033    66.738
ATOM     33  C39 UNK     1     -28.443  23.995   7.285 -0.14 -0.00    +0.130    66.738
ATOM     34  C40 UNK     1     -27.770  21.973  13.545 -0.27 +0.00    +0.131    66.738
ATOM     35  C41 UNK     1     -25.779  23.443  14.433 -0.43 +0.00    +0.017    66.738
ATOM     36  C42 UNK     1     -28.228  23.334   8.659 -0.37 -0.00    +0.142    66.738
ATOM     37  C43 UNK     1     -27.350  21.193  12.258 -0.22 +0.00    +0.040    66.738
ATOM     38  C44 UNK     1     -27.589  21.948   8.597 -0.26 -0.00    +0.261    66.738
ATOM     39  C45 UNK     1     -28.169  21.671  11.028 -0.24 +0.00    +0.134    66.738
ATOM     40  C46 UNK     1     -25.829  21.212  12.004 -0.28 +0.00    +0.015    66.738
ATOM     41  O16 UNK     1     -27.511  21.278   9.787 -0.12 -0.00    -0.316    66.738
ATOM     42  O17 UNK     1     -27.109  21.440   7.547 -0.23 +0.00    -0.265    66.738
ATOM     43  C47 UNK     1     -29.596  21.087  11.018 -0.24 +0.00    +0.040    66.738
ATOM     44  O1  UNK     1     -30.911  40.076   7.040 -0.01 -0.00    -0.349    66.738
ATOM     45  C1  UNK     1     -30.925  40.646   8.373 -0.05 +0.00    +0.291    66.738
ATOM     46  C2  UNK     1     -29.880  41.770   8.521 -0.16 +0.00    +0.206    66.738
ATOM     47  C4  UNK     1     -30.174  42.955   7.577 -0.15 +0.00    +0.247    66.738
ATOM     48  C8  UNK     1     -31.613  43.477   7.793 -0.20 +0.00    +0.179    66.738
ATOM     49  C5  UNK     1     -32.697  42.372   7.881 -0.08 +0.00    +0.151    66.738
ATOM     50  O2  UNK     1     -32.221  41.232   8.658 -0.02 -0.00    -0.351    66.738
ATOM     51  C9  UNK     1     -33.237  41.931   6.507 -0.03 +0.00    +0.042    66.738
ATOM     52  O3  UNK     1     -28.550  41.277   8.320 -0.07 -0.00    -0.388    66.738
ATOM     53  H5  UNK     1     -28.574  40.519   7.731 +0.03 +0.00    +0.210    66.738
ATOM     54  N1  UNK     1     -29.903  42.616   6.134 -0.09 -0.00    -0.070    66.738
ATOM     55  H11 UNK     1     -30.059  43.446   5.544 +0.04 +0.00    +0.274    66.738
ATOM     56  H12 UNK     1     -30.536  41.857   5.840 +0.03 +0.00    +0.274    66.738
ATOM     57  H13 UNK     1     -28.929  42.298   6.036 +0.04 +0.00    +0.274    66.738
ATOM     58  O4  UNK     1     -31.636  44.229   9.012 -0.22 +0.00    -0.391    66.738
ATOM     59  H19 UNK     1     -31.954  43.676   9.730 +0.05 -0.00    +0.210    66.738
ATOM     60  O5  UNK     1     -33.594  39.512   4.213 +0.00 -0.00    -0.394    66.738
ATOM     61  H21 UNK     1     -33.924  39.443   3.313 +0.00 +0.00    +0.210    66.738
ATOM     62  C15 UNK     1     -32.117  40.334   1.700 +0.00 +0.00    +0.182    66.738
ATOM     63  O7  UNK     1     -33.346  40.346   1.413 +0.00 -0.00    -0.648    66.738
ATOM     64  O8  UNK     1     -31.345  41.148   1.125 +0.00 -0.00    -0.648    66.738
ATOM     65  O6  UNK     1     -32.912  37.210   2.614 -0.00 -0.00    -0.394    66.738
ATOM     66  H27 UNK     1     -33.586  37.861   2.823 +0.00 +0.00    +0.210    66.738
ATOM     67  O10 UNK     1     -31.791  32.820   2.960 -0.08 +0.00    -0.393    66.738
ATOM     68  H36 UNK     1     -31.979  33.265   2.130 +0.02 +0.00    +0.210    66.738
ATOM     69  O11 UNK     1     -28.965  32.950   5.339 -0.03 -0.00    -0.393    66.738
ATOM     70  H41 UNK     1     -29.145  33.310   6.210 +0.02 +0.00    +0.210    66.738
ATOM     71  O12 UNK     1     -31.129  28.256   4.804 -0.17 +0.00    -0.395    66.738
ATOM     72  H51 UNK     1     -31.167  27.306   4.663 +0.05 +0.00    +0.210    66.738
ATOM     73  O13 UNK     1     -30.067  25.670   5.315 -0.11 -0.00    -0.395    66.738
ATOM     74  H57 UNK     1     -30.427  24.873   5.710 +0.07 +0.00    +0.210    66.738
ATOM     75  O14 UNK     1     -29.358  23.187   6.528 -0.15 +0.00    -0.395    66.738
ATOM     76  H66 UNK     1     -29.479  23.571   5.657 +0.06 -0.00    +0.210    66.738
ATOM     77  O15 UNK     1     -27.533  21.126  14.679 -0.09 -0.01    -0.394    66.738
ATOM     78  H68 UNK     1     -28.025  20.307  14.574 +0.05 +0.00    +0.210    66.738
TER
ENDMDL


AVSFLD: # AVS field file
AVSFLD: #
AVSFLD: # Created by AutoDock
AVSFLD: #
AVSFLD: ndim=2           # number of dimensions in the field
AVSFLD: nspace=1         # number of physical coordinates
AVSFLD: veclen=7         # vector size
AVSFLD: dim1=78          # atoms
AVSFLD: dim2=9           # conformations
AVSFLD: data=Real       # data type (byte,integer,Real,double)
AVSFLD: field=uniform    # field coordinate layout
AVSFLD: label= x y z vdW Elec q RMS
AVSFLD: variable 1 file = nystatin.dlg.pdb filetype = ascii offset = 5 stride = 12
AVSFLD: variable 2 file = nystatin.dlg.pdb filetype = ascii offset = 6 stride = 12
AVSFLD: variable 3 file = nystatin.dlg.pdb filetype = ascii offset = 7 stride = 12
AVSFLD: variable 4 file = nystatin.dlg.pdb filetype = ascii offset = 8 stride = 12
AVSFLD: variable 5 file = nystatin.dlg.pdb filetype = ascii offset = 9 stride = 12
AVSFLD: variable 6 file = nystatin.dlg.pdb filetype = ascii offset = 10 stride = 12
AVSFLD: variable 7 file = nystatin.dlg.pdb filetype = ascii offset = 11 stride = 12
AVSFLD: # end of file

>>> Closing the docking parameter file (DPF)...
This docking finished at:			3:20 06" p.m., 05/18/2023


________________________________________________________________________________

/usr/bin/autodock4: Successful Completion on "asus-F509FB"

Real= 14m 20.68s,  CPU= 14m 20.10s,  System= 0.32s
________________________________________________________________________________

