REMARK  0 active torsions:
REMARK  status: ('A' for Active; 'I' for Inactive)
ROOT
HETATM    1  C   UNK     0      -1.113  -0.345   0.234  0.00  0.00    -0.036 C 
HETATM    2  C   UNK     0      -0.872   1.126  -0.236  0.00  0.00    -0.002 C 
HETATM    3  C   UNK     0       0.098  -0.685  -0.701  0.00  0.00     0.022 C 
HETATM    4  C   UNK     0      -0.454   0.478  -1.595  0.00  0.00     0.015 C 
HETATM    5  C   UNK     0       0.301   1.805   0.493  0.00  0.00     0.033 C 
HETATM    6  C   UNK     0       1.418  -0.342  -0.071  0.00  0.00    -0.083 C 
HETATM    7  C   UNK     0      -2.438  -0.938  -0.221  0.00  0.00     0.016 C 
HETATM    8  C   UNK     0      -0.957  -0.635   1.713  0.00  0.00     0.016 C 
HETATM    9  C   UNK     0       1.491   0.873   0.502  0.00  0.00    -0.024 C 
HETATM   10  C   UNK     0       2.527  -1.336  -0.117  0.00  0.00     0.043 C 
ENDROOT
TORSDOF 0
