          AutoDock 4.2 Release 4.2.6   
         (C) 1989-2012 The Scripps Research Institute
        AutoDock comes with ABSOLUTELY NO WARRANTY.
        AutoDock is free software, and you are welcome
        to redistribute it under certain conditions;
        for details type 'autodock4 -C'

                     main.cc  $Revision: 1.213 $

                   Compiled on Mar 22 2020 at 15:34:10


This file was created at:			2:42 58" p.m., 05/18/2023
                   on host:		"asus-F509FB"
Current Working Directory = "/media/asus/shityakoff/Collaborators_students/Hfid/fungi"

      ________________________________________________________________

                   SETTING UP DEFAULT PARAMETER LIBRARY
      ________________________________________________________________


Random number generator was seeded with values 11972, 1684410178.
Docking parameter file (DPF) used for this docking:		pinene.dpf
DPF> autodock_parameter_version 4.2       # used by autodock to validate parameter set

	Autodock parameter version 4.2.
DPF> outlev 1                             # diagnostic output level

Output Level = 1  ADT-COMPATIBLE OUTPUT DURING DOCKING.
DPF> intelec                              # calculate internal electrostatics

Electrostatic energies will be calculated for all non-bonds between moving atoms.
DPF> seed pid time                        # seeds for random generator

Random number generator was seeded with values 11972, 1684410178.
DPF> ligand_types C                       # atoms types in ligand

DPF> fld receptor.mem_erg.maps.fld        # grid_data_file

Opening Grid Map Dimensions file:		receptor.mem_erg.maps.fld
Grid Point Spacing =				0.375 Angstroms

Even Number of User-specified Grid Points =	300 x-points
						300 y-points
						60 z-points

Coordinates of Central Grid Point of Maps =	(-2.010, 2.090, 9.340)
Macromolecule file used to create Grid Maps =	receptor.mem_erg.pdbqt
Grid Parameter file used to create Grid Maps =	mem_erg.gpf
Minimum coordinates in grid = (-58.260, -54.160, -1.910)
Maximum coordinates in grid = (54.240, 58.340, 20.590)

DPF> map receptor.mem_erg.C.map           # atom-specific affinity map

DPF> elecmap receptor.mem_erg.e.map       # electrostatics map

DPF> desolvmap receptor.mem_erg.d.map     # desolvation map

DPF> move pinene.pdbqt                    # small molecule

1,4-interactions will be _ignored_ in the non-bonded internal energy calculation.

Ligand PDBQT file = "pinene.pdbqt"

INPUT LIGAND PDBQT FILE:
________________________

INPUT-LIGAND-PDBQT: REMARK  0 active torsions:
INPUT-LIGAND-PDBQT: REMARK  status: ('A' for Active; 'I' for Inactive)
INPUT-LIGAND-PDBQT: ROOT
INPUT-LIGAND-PDBQT: HETATM    1  C   UNK     0      -1.113  -0.345   0.234  0.00  0.00    -0.036 C 
INPUT-LIGAND-PDBQT: HETATM    2  C   UNK     0      -0.872   1.126  -0.236  0.00  0.00    -0.002 C 
INPUT-LIGAND-PDBQT: HETATM    3  C   UNK     0       0.098  -0.685  -0.701  0.00  0.00     0.022 C 
INPUT-LIGAND-PDBQT: HETATM    4  C   UNK     0      -0.454   0.478  -1.595  0.00  0.00     0.015 C 
INPUT-LIGAND-PDBQT: HETATM    5  C   UNK     0       0.301   1.805   0.493  0.00  0.00     0.033 C 
INPUT-LIGAND-PDBQT: HETATM    6  C   UNK     0       1.418  -0.342  -0.071  0.00  0.00    -0.083 C 
INPUT-LIGAND-PDBQT: HETATM    7  C   UNK     0      -2.438  -0.938  -0.221  0.00  0.00     0.016 C 
INPUT-LIGAND-PDBQT: HETATM    8  C   UNK     0      -0.957  -0.635   1.713  0.00  0.00     0.016 C 
INPUT-LIGAND-PDBQT: HETATM    9  C   UNK     0       1.491   0.873   0.502  0.00  0.00    -0.024 C 
INPUT-LIGAND-PDBQT: HETATM   10  C   UNK     0       2.527  -1.336  -0.117  0.00  0.00     0.043 C 
INPUT-LIGAND-PDBQT: ENDROOT
INPUT-LIGAND-PDBQT: TORSDOF 0
________________________________________________________________________________

Total charge on ligand                               =	-0.000 e
REMARK  0 active torsions:
REMARK  status: ('A' for Active; 'I' for Inactive)

*** No Rotatable Bonds detected in Small Molecule. ***

Number of atoms in ligand:  10

Number of non-hydrogen atoms in ligand:  10

Number of vibrational degrees of freedom of ligand:  24


Number of torsional degrees of freedom = 0
Estimated loss of torsional free energy upon binding = +0.0000 kcal/mol


DPF> about 0.0001 0.0001 0.0001           # small molecule center

Small molecule center of rotation =	(+0.000, +0.000, +0.000)

DPF> tran0 random                         # initial coordinates/A or random

Initial translation =			(37.881, 19.338, 2.431) Angstroms
DPF> quaternion0 random                   # initial orientation

Each run will begin with a new, random initial orientation.
Initial quaternion,  (x,y,z,w) =	( 0.563, -0.034, 0.815, -0.130 ),
DPF> dihe0 random                         # initial dihedrals (relative) or random

DPF> torsdof 0                            # torsional degrees of freedom

Number of torsional degrees of freedom = 0
Free energy coefficient for torsional degrees of freedom = 0.2983, the factory default value.

Estimated loss of torsional free energy upon binding = +0.0000 kcal/mol

DPF> rmstol 2.0                           # cluster_tolerance/A

Maximum RMS tolerance for conformational cluster analysis = 2.00 Angstroms
DPF> extnrg 1000.0                        # external grid energy

External grid energy (beyond grid map walls) = 1000.00

DPF> e0max 0.0 10000                      # max initial energy; max number of retries

Using user-specified maximum number of retries for simanneal initialization, 10000 retries.
If the simanneal initial energy is greater than e0max, 0.000,
then a new, random initial state will be created.

DPF> ga_pop_size 150                      # number of individuals in population

A population of 150 individuals will be used
DPF> ga_num_evals 2500000                 # maximum number of energy evaluations

There will be at most 2500000 function evaluations used.
DPF> ga_num_generations 27000             # maximum number of generations

The GA will run for at most 27000 generations.
DPF> ga_elitism 1                         # number of top individuals to survive to next generation

The 1 best will be preserved each GA generation.
DPF> ga_mutation_rate 0.02                # rate of gene mutation

The mutation rate is 0.020000.
DPF> ga_crossover_rate 0.8                # rate of crossover

The crossover rate is 0.800000.
DPF> ga_window_size 10                    # 

The GA's selection window is 10 generations.
DPF> ga_cauchy_alpha 0.0                  # Alpha parameter of Cauchy distribution

The alpha parameter (for the Cauchy distribution) is being set to 0.000000.
DPF> ga_cauchy_beta 1.0                   # Beta parameter Cauchy distribution

The beta parameter (for the Cauchy distribution) is being set to 1.000000.
DPF> set_ga                               # set the above parameters for GA or LGA

DPF> sw_max_its 300                       # iterations of Solis & Wets local search

Solis & Wets algorithms will perform at most 300 iterations.
DPF> sw_max_succ 4                        # consecutive successes before changing rho

Solis & Wets algorithms expand rho every 4 in a row successes.
DPF> sw_max_fail 4                        # consecutive failures before changing rho

Solis & Wets algorithms contract rho every 4 in a row failures.
DPF> sw_rho 1.0                           # size of local search space to sample

rho is set to 1.000000.
DPF> sw_lb_rho 0.01                       # lower bound on rho

rho will never get smaller than 0.010000.
DPF> ls_search_freq 0.06                  # probability of performing local search on individual

Local search will be performed with frequency 0.060000.
DPF> set_psw1                             # set the above pseudo-Solis & Wets parameters

Creating a new Local Search object using the pseudo-Solis-Wets algorithm (pSW1) with the current settings.

DPF> unbound_model extended               # state of unbound ligand

NOTE:  AutoDock cannot compute the energy of the unbound state, since the ligand is rigid.

NOTE:  Use the "unbound energy" command to set the energy of the unbound state, if known from a previous calculation where the ligand was treated as flexible.



The internal energy of the unbound state was set to +0.000 kcal/mol

________________________________________________________________________________

DPF> ga_run 10                            # do this many hybrid GA-LS runs

centering ligand on specified point: 0.000 0.000 0.000
Furthest true ligand atom from "about" center is 2.861 Angstroms (maxrad).
Number of requested GA dockings = 10 runs
Unbound model to be used is 'same as bound' [AutoDock 4.2 default].

	BEGINNING GENETIC ALGORITHM DOCKING 1 of 10
Run: 1 Seed: 2089074736 1498099369 [ Run 1 of 10 GA/GALS ]
Beginning LAMARCKIAN GENETIC ALGORITHM (LGA), with a maximum of 2500000 energy evaluations.

Final-Value: -6.395


	FINAL GENETIC ALGORITHM DOCKED STATE
	_______________________________________________


Detailed state:  trans -20.412 -1.751 11.745 quatxyzw -0.198853 0.392703 -0.127552 0.888804 center 0.000 0.000 0.000 ntor 0
State:	-20.412  -1.751  11.745  -0.434  0.857 -0.278 54.553  

DOCKED: MODEL        1
DOCKED: USER    Run = 1
DOCKED: USER    DPF = pinene.dpf
DOCKED: USER  
DOCKED: USER    Estimated Free Energy of Binding    =   -6.39 kcal/mol  [=(1)+(2)+(3)-(4)]
DOCKED: USER    Estimated Inhibition Constant, Ki   =   20.54 uM (micromolar)  [Temperature = 298.15 K]
DOCKED: USER    
DOCKED: USER    (1) Final Intermolecular Energy     =   -6.39 kcal/mol
DOCKED: USER        vdW + Hbond + desolv Energy     =   -6.39 kcal/mol
DOCKED: USER        Electrostatic Energy            =   -0.00 kcal/mol
DOCKED: USER    (2) Final Total Internal Energy     =   +0.00 kcal/mol
DOCKED: USER    (3) Torsional Free Energy           =   +0.00 kcal/mol
DOCKED: USER    (4) Unbound System's Energy         =   +0.00 kcal/mol
DOCKED: USER    
DOCKED: USER    
DOCKED: USER    NEWDPF move pinene.pdbqt
DOCKED: USER    NEWDPF about 0.000100 0.000100 0.000100
DOCKED: USER    NEWDPF tran0 -20.411734 -1.751167 11.744764
DOCKED: USER    NEWDPF quaternion0 -0.198853 0.392703 -0.127552 0.888804
DOCKED: USER    NEWDPF axisangle0 -0.433904 0.856892 -0.278322 54.553388
DOCKED: USER    NEWDPF quat0 -0.433904 0.856892 -0.278322 54.553388
DOCKED: USER  keepresnum = 1 
DOCKED: USER  
DOCKED: REMARK  0 active torsions:
DOCKED: REMARK  status: ('A' for Active; 'I' for Inactive)
DOCKED: USER                              x       y       z     vdW  Elec       q    Type
DOCKED: USER                           _______ _______ _______ _____ _____    ______ ____
DOCKED: ROOT
DOCKED: ATOM      1  C   UNK     0     -21.165  -2.242  10.967 -0.67 -0.00    -0.036 C 
DOCKED: ATOM      2  C   UNK     0     -21.265  -0.705  11.232 -0.61 -0.00    -0.002 C 
DOCKED: ATOM      3  C   UNK     0     -19.631  -2.035  11.215 -0.67 +0.00    +0.022 C 
DOCKED: ATOM      4  C   UNK     0     -19.861  -0.635  10.549 -0.70 +0.00    +0.015 C 
DOCKED: ATOM      5  C   UNK     0     -21.224  -0.350  12.729 -0.55 +0.00    +0.033 C 
DOCKED: ATOM      6  C   UNK     0     -19.300  -1.923  12.676 -0.64 -0.00    -0.083 C 
DOCKED: ATOM      7  C   UNK     0     -21.516  -2.656   9.546 -0.70 +0.00    +0.016 C 
DOCKED: ATOM      8  C   UNK     0     -21.908  -3.160  11.916 -0.68 +0.00    +0.016 C 
DOCKED: ATOM      9  C   UNK     0     -20.088  -1.098  13.390 -0.56 -0.00    -0.024 C 
DOCKED: ATOM     10  C   UNK     0     -18.159  -2.707  13.227 -0.63 +0.00    +0.043 C 
DOCKED: ENDROOT
DOCKED: TORSDOF 0
DOCKED: TER
DOCKED: ENDMDL
________________________________________________________________________________


	BEGINNING GENETIC ALGORITHM DOCKING 2 of 10
Run: 2 Seed: 1835213877 1402984586 [ Run 2 of 10 GA/GALS ]
Beginning LAMARCKIAN GENETIC ALGORITHM (LGA), with a maximum of 2500000 energy evaluations.

Final-Value: -6.397


	FINAL GENETIC ALGORITHM DOCKED STATE
	_______________________________________________


Detailed state:  trans -20.425 -1.712 11.733 quatxyzw 0.176722 -0.383201 0.150928 -0.893950 center 0.000 0.000 0.000 ntor 0
State:	-20.425  -1.712  11.733   0.394 -0.855  0.337 -53.252  

DOCKED: MODEL        2
DOCKED: USER    Run = 2
DOCKED: USER    DPF = pinene.dpf
DOCKED: USER  
DOCKED: USER    Estimated Free Energy of Binding    =   -6.40 kcal/mol  [=(1)+(2)+(3)-(4)]
DOCKED: USER    Estimated Inhibition Constant, Ki   =   20.48 uM (micromolar)  [Temperature = 298.15 K]
DOCKED: USER    
DOCKED: USER    (1) Final Intermolecular Energy     =   -6.40 kcal/mol
DOCKED: USER        vdW + Hbond + desolv Energy     =   -6.40 kcal/mol
DOCKED: USER        Electrostatic Energy            =   -0.00 kcal/mol
DOCKED: USER    (2) Final Total Internal Energy     =   +0.00 kcal/mol
DOCKED: USER    (3) Torsional Free Energy           =   +0.00 kcal/mol
DOCKED: USER    (4) Unbound System's Energy         =   +0.00 kcal/mol
DOCKED: USER    
DOCKED: USER    
DOCKED: USER    NEWDPF move pinene.pdbqt
DOCKED: USER    NEWDPF about 0.000100 0.000100 0.000100
DOCKED: USER    NEWDPF tran0 -20.424720 -1.711945 11.732671
DOCKED: USER    NEWDPF quaternion0 0.176722 -0.383201 0.150928 -0.893950
DOCKED: USER    NEWDPF axisangle0 0.394323 -0.855042 0.336768 -53.252243
DOCKED: USER    NEWDPF quat0 0.394323 -0.855042 0.336768 -53.252243
DOCKED: USER  keepresnum = 1 
DOCKED: USER  
DOCKED: REMARK  0 active torsions:
DOCKED: REMARK  status: ('A' for Active; 'I' for Inactive)
DOCKED: USER                              x       y       z     vdW  Elec       q    Type
DOCKED: USER                           _______ _______ _______ _____ _____    ______ ____
DOCKED: ROOT
DOCKED: ATOM      1  C   UNK     0     -21.168  -2.270  10.992 -0.67 -0.00    -0.036 C 
DOCKED: ATOM      2  C   UNK     0     -21.308  -0.723  11.162 -0.60 -0.00    -0.002 C 
DOCKED: ATOM      3  C   UNK     0     -19.639  -2.007  11.216 -0.67 +0.00    +0.022 C 
DOCKED: ATOM      4  C   UNK     0     -19.911  -0.658  10.466 -0.70 +0.00    +0.015 C 
DOCKED: ATOM      5  C   UNK     0     -21.269  -0.274  12.634 -0.55 +0.00    +0.033 C 
DOCKED: ATOM      6  C   UNK     0     -19.304  -1.796  12.665 -0.64 -0.00    -0.083 C 
DOCKED: ATOM      7  C   UNK     0     -21.516  -2.781   9.602 -0.70 +0.00    +0.016 C 
DOCKED: ATOM      8  C   UNK     0     -21.882  -3.146  12.002 -0.67 +0.00    +0.016 C 
DOCKED: ATOM      9  C   UNK     0     -20.110  -0.950  13.332 -0.55 -0.00    -0.024 C 
DOCKED: ATOM     10  C   UNK     0     -18.140  -2.514  13.256 -0.64 +0.00    +0.043 C 
DOCKED: ENDROOT
DOCKED: TORSDOF 0
DOCKED: TER
DOCKED: ENDMDL
________________________________________________________________________________


	BEGINNING GENETIC ALGORITHM DOCKING 3 of 10
Run: 3 Seed: 414285686 557533088 [ Run 3 of 10 GA/GALS ]
Beginning LAMARCKIAN GENETIC ALGORITHM (LGA), with a maximum of 2500000 energy evaluations.

Final-Value: -6.398


	FINAL GENETIC ALGORITHM DOCKED STATE
	_______________________________________________


Detailed state:  trans -20.411 -1.727 11.732 quatxyzw -0.174977 0.384018 -0.146774 0.894634 center 0.000 0.000 0.000 ntor 0
State:	-20.411  -1.727  11.732  -0.392  0.859 -0.329 53.077  

DOCKED: MODEL        3
DOCKED: USER    Run = 3
DOCKED: USER    DPF = pinene.dpf
DOCKED: USER  
DOCKED: USER    Estimated Free Energy of Binding    =   -6.40 kcal/mol  [=(1)+(2)+(3)-(4)]
DOCKED: USER    Estimated Inhibition Constant, Ki   =   20.43 uM (micromolar)  [Temperature = 298.15 K]
DOCKED: USER    
DOCKED: USER    (1) Final Intermolecular Energy     =   -6.40 kcal/mol
DOCKED: USER        vdW + Hbond + desolv Energy     =   -6.40 kcal/mol
DOCKED: USER        Electrostatic Energy            =   -0.00 kcal/mol
DOCKED: USER    (2) Final Total Internal Energy     =   +0.00 kcal/mol
DOCKED: USER    (3) Torsional Free Energy           =   +0.00 kcal/mol
DOCKED: USER    (4) Unbound System's Energy         =   +0.00 kcal/mol
DOCKED: USER    
DOCKED: USER    
DOCKED: USER    NEWDPF move pinene.pdbqt
DOCKED: USER    NEWDPF about 0.000100 0.000100 0.000100
DOCKED: USER    NEWDPF tran0 -20.411447 -1.727199 11.731682
DOCKED: USER    NEWDPF quaternion0 -0.174977 0.384018 -0.146774 0.894634
DOCKED: USER    NEWDPF axisangle0 -0.391623 0.859487 -0.328501 53.076985
DOCKED: USER    NEWDPF quat0 -0.391623 0.859487 -0.328501 53.076985
DOCKED: USER  keepresnum = 1 
DOCKED: USER  
DOCKED: REMARK  0 active torsions:
DOCKED: REMARK  status: ('A' for Active; 'I' for Inactive)
DOCKED: USER                              x       y       z     vdW  Elec       q    Type
DOCKED: USER                           _______ _______ _______ _____ _____    ______ ____
DOCKED: ROOT
DOCKED: ATOM      1  C   UNK     0     -21.160  -2.279  10.991 -0.67 -0.00    -0.036 C 
DOCKED: ATOM      2  C   UNK     0     -21.286  -0.730  11.161 -0.61 -0.00    -0.002 C 
DOCKED: ATOM      3  C   UNK     0     -19.629  -2.030  11.215 -0.67 +0.00    +0.022 C 
DOCKED: ATOM      4  C   UNK     0     -19.888  -0.678  10.465 -0.70 +0.00    +0.015 C 
DOCKED: ATOM      5  C   UNK     0     -21.242  -0.282  12.633 -0.55 +0.00    +0.033 C 
DOCKED: ATOM      6  C   UNK     0     -19.292  -1.822  12.664 -0.64 -0.00    -0.083 C 
DOCKED: ATOM      7  C   UNK     0     -21.512  -2.786   9.601 -0.70 +0.00    +0.016 C 
DOCKED: ATOM      8  C   UNK     0     -21.882  -3.148  12.000 -0.67 +0.00    +0.016 C 
DOCKED: ATOM      9  C   UNK     0     -20.090  -0.968  13.331 -0.55 -0.00    -0.024 C 
DOCKED: ATOM     10  C   UNK     0     -18.134  -2.550  13.255 -0.64 +0.00    +0.043 C 
DOCKED: ENDROOT
DOCKED: TORSDOF 0
DOCKED: TER
DOCKED: ENDMDL
________________________________________________________________________________


	BEGINNING GENETIC ALGORITHM DOCKING 4 of 10
Run: 4 Seed: 1464103455 590975367 [ Run 4 of 10 GA/GALS ]
Beginning LAMARCKIAN GENETIC ALGORITHM (LGA), with a maximum of 2500000 energy evaluations.

Final-Value: -6.397


	FINAL GENETIC ALGORITHM DOCKED STATE
	_______________________________________________


Detailed state:  trans -20.400 -1.718 11.730 quatxyzw -0.170682 0.384021 -0.143140 0.896050 center 0.000 0.000 0.000 ntor 0
State:	-20.400  -1.718  11.730  -0.384  0.865 -0.322 52.713  

DOCKED: MODEL        4
DOCKED: USER    Run = 4
DOCKED: USER    DPF = pinene.dpf
DOCKED: USER  
DOCKED: USER    Estimated Free Energy of Binding    =   -6.40 kcal/mol  [=(1)+(2)+(3)-(4)]
DOCKED: USER    Estimated Inhibition Constant, Ki   =   20.47 uM (micromolar)  [Temperature = 298.15 K]
DOCKED: USER    
DOCKED: USER    (1) Final Intermolecular Energy     =   -6.40 kcal/mol
DOCKED: USER        vdW + Hbond + desolv Energy     =   -6.40 kcal/mol
DOCKED: USER        Electrostatic Energy            =   -0.00 kcal/mol
DOCKED: USER    (2) Final Total Internal Energy     =   +0.00 kcal/mol
DOCKED: USER    (3) Torsional Free Energy           =   +0.00 kcal/mol
DOCKED: USER    (4) Unbound System's Energy         =   +0.00 kcal/mol
DOCKED: USER    
DOCKED: USER    
DOCKED: USER    NEWDPF move pinene.pdbqt
DOCKED: USER    NEWDPF about 0.000100 0.000100 0.000100
DOCKED: USER    NEWDPF tran0 -20.400367 -1.717750 11.730397
DOCKED: USER    NEWDPF quaternion0 -0.170682 0.384021 -0.143140 0.896050
DOCKED: USER    NEWDPF axisangle0 -0.384461 0.865005 -0.322423 52.712669
DOCKED: USER    NEWDPF quat0 -0.384461 0.865005 -0.322423 52.712669
DOCKED: USER  keepresnum = 1 
DOCKED: USER  
DOCKED: REMARK  0 active torsions:
DOCKED: REMARK  status: ('A' for Active; 'I' for Inactive)
DOCKED: USER                              x       y       z     vdW  Elec       q    Type
DOCKED: USER                           _______ _______ _______ _____ _____    ______ ____
DOCKED: ROOT
DOCKED: ATOM      1  C   UNK     0     -21.155  -2.265  10.994 -0.67 -0.00    -0.036 C 
DOCKED: ATOM      2  C   UNK     0     -21.265  -0.715  11.156 -0.61 -0.00    -0.002 C 
DOCKED: ATOM      3  C   UNK     0     -19.622  -2.031  11.215 -0.67 +0.00    +0.022 C 
DOCKED: ATOM      4  C   UNK     0     -19.867  -0.681  10.458 -0.70 +0.00    +0.015 C 
DOCKED: ATOM      5  C   UNK     0     -21.215  -0.259  12.625 -0.55 +0.00    +0.033 C 
DOCKED: ATOM      6  C   UNK     0     -19.281  -1.818  12.662 -0.64 -0.00    -0.083 C 
DOCKED: ATOM      7  C   UNK     0     -21.514  -2.777   9.607 -0.70 +0.00    +0.016 C 
DOCKED: ATOM      8  C   UNK     0     -21.885  -3.122  12.008 -0.67 +0.00    +0.016 C 
DOCKED: ATOM      9  C   UNK     0     -20.070  -0.953  13.325 -0.55 -0.00    -0.024 C 
DOCKED: ATOM     10  C   UNK     0     -18.130  -2.556  13.255 -0.64 +0.00    +0.043 C 
DOCKED: ENDROOT
DOCKED: TORSDOF 0
DOCKED: TER
DOCKED: ENDMDL
________________________________________________________________________________


	BEGINNING GENETIC ALGORITHM DOCKING 5 of 10
Run: 5 Seed: 1390520594 620434167 [ Run 5 of 10 GA/GALS ]
Beginning LAMARCKIAN GENETIC ALGORITHM (LGA), with a maximum of 2500000 energy evaluations.

Final-Value: -6.397


	FINAL GENETIC ALGORITHM DOCKED STATE
	_______________________________________________


Detailed state:  trans -20.408 -1.726 11.734 quatxyzw 0.172659 -0.383119 0.143917 -0.895934 center 0.000 0.000 0.000 ntor 0
State:	-20.408  -1.726  11.734   0.389 -0.863  0.324 -52.743  

DOCKED: MODEL        5
DOCKED: USER    Run = 5
DOCKED: USER    DPF = pinene.dpf
DOCKED: USER  
DOCKED: USER    Estimated Free Energy of Binding    =   -6.40 kcal/mol  [=(1)+(2)+(3)-(4)]
DOCKED: USER    Estimated Inhibition Constant, Ki   =   20.45 uM (micromolar)  [Temperature = 298.15 K]
DOCKED: USER    
DOCKED: USER    (1) Final Intermolecular Energy     =   -6.40 kcal/mol
DOCKED: USER        vdW + Hbond + desolv Energy     =   -6.40 kcal/mol
DOCKED: USER        Electrostatic Energy            =   -0.00 kcal/mol
DOCKED: USER    (2) Final Total Internal Energy     =   +0.00 kcal/mol
DOCKED: USER    (3) Torsional Free Energy           =   +0.00 kcal/mol
DOCKED: USER    (4) Unbound System's Energy         =   +0.00 kcal/mol
DOCKED: USER    
DOCKED: USER    
DOCKED: USER    NEWDPF move pinene.pdbqt
DOCKED: USER    NEWDPF about 0.000100 0.000100 0.000100
DOCKED: USER    NEWDPF tran0 -20.408172 -1.725845 11.733575
DOCKED: USER    NEWDPF quaternion0 0.172659 -0.383119 0.143917 -0.895934
DOCKED: USER    NEWDPF axisangle0 0.388706 -0.862515 0.324000 -52.742813
DOCKED: USER    NEWDPF quat0 0.388706 -0.862515 0.324000 -52.742813
DOCKED: USER  keepresnum = 1 
DOCKED: USER  
DOCKED: REMARK  0 active torsions:
DOCKED: REMARK  status: ('A' for Active; 'I' for Inactive)
DOCKED: USER                              x       y       z     vdW  Elec       q    Type
DOCKED: USER                           _______ _______ _______ _____ _____    ______ ____
DOCKED: ROOT
DOCKED: ATOM      1  C   UNK     0     -21.163  -2.274  10.997 -0.67 -0.00    -0.036 C 
DOCKED: ATOM      2  C   UNK     0     -21.277  -0.724  11.163 -0.61 -0.00    -0.002 C 
DOCKED: ATOM      3  C   UNK     0     -19.629  -2.035  11.216 -0.67 +0.00    +0.022 C 
DOCKED: ATOM      4  C   UNK     0     -19.881  -0.684  10.463 -0.70 +0.00    +0.015 C 
DOCKED: ATOM      5  C   UNK     0     -21.226  -0.272  12.633 -0.55 +0.00    +0.033 C 
DOCKED: ATOM      6  C   UNK     0     -19.286  -1.825  12.663 -0.64 -0.00    -0.083 C 
DOCKED: ATOM      7  C   UNK     0     -21.523  -2.783   9.609 -0.70 +0.00    +0.016 C 
DOCKED: ATOM      8  C   UNK     0     -21.888  -3.136  12.010 -0.67 +0.00    +0.016 C 
DOCKED: ATOM      9  C   UNK     0     -20.077  -0.965  13.330 -0.55 -0.00    -0.024 C 
DOCKED: ATOM     10  C   UNK     0     -18.132  -2.560  13.252 -0.64 +0.00    +0.043 C 
DOCKED: ENDROOT
DOCKED: TORSDOF 0
DOCKED: TER
DOCKED: ENDMDL
________________________________________________________________________________


	BEGINNING GENETIC ALGORITHM DOCKING 6 of 10
Run: 6 Seed: 696882413 999991692 [ Run 6 of 10 GA/GALS ]
Beginning LAMARCKIAN GENETIC ALGORITHM (LGA), with a maximum of 2500000 energy evaluations.

Final-Value: -6.396


	FINAL GENETIC ALGORITHM DOCKED STATE
	_______________________________________________


Detailed state:  trans -20.435 -1.703 11.730 quatxyzw -0.176969 0.383095 -0.154971 0.893255 center 0.000 0.000 0.000 ntor 0
State:	-20.435  -1.703  11.730  -0.394  0.852 -0.345 53.430  

DOCKED: MODEL        6
DOCKED: USER    Run = 6
DOCKED: USER    DPF = pinene.dpf
DOCKED: USER  
DOCKED: USER    Estimated Free Energy of Binding    =   -6.40 kcal/mol  [=(1)+(2)+(3)-(4)]
DOCKED: USER    Estimated Inhibition Constant, Ki   =   20.50 uM (micromolar)  [Temperature = 298.15 K]
DOCKED: USER    
DOCKED: USER    (1) Final Intermolecular Energy     =   -6.40 kcal/mol
DOCKED: USER        vdW + Hbond + desolv Energy     =   -6.40 kcal/mol
DOCKED: USER        Electrostatic Energy            =   -0.00 kcal/mol
DOCKED: USER    (2) Final Total Internal Energy     =   +0.00 kcal/mol
DOCKED: USER    (3) Torsional Free Energy           =   +0.00 kcal/mol
DOCKED: USER    (4) Unbound System's Energy         =   +0.00 kcal/mol
DOCKED: USER    
DOCKED: USER    
DOCKED: USER    NEWDPF move pinene.pdbqt
DOCKED: USER    NEWDPF about 0.000100 0.000100 0.000100
DOCKED: USER    NEWDPF tran0 -20.435235 -1.702709 11.730238
DOCKED: USER    NEWDPF quaternion0 -0.176969 0.383095 -0.154971 0.893255
DOCKED: USER    NEWDPF axisangle0 -0.393658 0.852173 -0.344725 53.429674
DOCKED: USER    NEWDPF quat0 -0.393658 0.852173 -0.344725 53.429674
DOCKED: USER  keepresnum = 1 
DOCKED: USER  
DOCKED: REMARK  0 active torsions:
DOCKED: REMARK  status: ('A' for Active; 'I' for Inactive)
DOCKED: USER                              x       y       z     vdW  Elec       q    Type
DOCKED: USER                           _______ _______ _______ _____ _____    ______ ____
DOCKED: ROOT
DOCKED: ATOM      1  C   UNK     0     -21.173  -2.269  10.990 -0.67 -0.00    -0.036 C 
DOCKED: ATOM      2  C   UNK     0     -21.325  -0.722  11.156 -0.60 -0.00    -0.002 C 
DOCKED: ATOM      3  C   UNK     0     -19.647  -1.993  11.216 -0.67 +0.00    +0.022 C 
DOCKED: ATOM      4  C   UNK     0     -19.927  -0.648  10.462 -0.70 +0.00    +0.015 C 
DOCKED: ATOM      5  C   UNK     0     -21.292  -0.269  12.626 -0.55 +0.00    +0.033 C 
DOCKED: ATOM      6  C   UNK     0     -19.316  -1.776  12.665 -0.64 -0.00    -0.083 C 
DOCKED: ATOM      7  C   UNK     0     -21.514  -2.785   9.600 -0.70 +0.00    +0.016 C 
DOCKED: ATOM      8  C   UNK     0     -21.882  -3.148  12.000 -0.67 +0.00    +0.016 C 
DOCKED: ATOM      9  C   UNK     0     -20.130  -0.934  13.328 -0.54 -0.00    -0.024 C 
DOCKED: ATOM     10  C   UNK     0     -18.147  -2.483  13.259 -0.65 +0.00    +0.043 C 
DOCKED: ENDROOT
DOCKED: TORSDOF 0
DOCKED: TER
DOCKED: ENDMDL
________________________________________________________________________________


	BEGINNING GENETIC ALGORITHM DOCKING 7 of 10
Run: 7 Seed: 190921126 864624857 [ Run 7 of 10 GA/GALS ]
Beginning LAMARCKIAN GENETIC ALGORITHM (LGA), with a maximum of 2500000 energy evaluations.

Final-Value: -6.397


	FINAL GENETIC ALGORITHM DOCKED STATE
	_______________________________________________


Detailed state:  trans -20.416 -1.737 11.730 quatxyzw 0.176287 -0.384820 0.145948 -0.894168 center 0.000 0.000 0.000 ntor 0
State:	-20.416  -1.737  11.730   0.394 -0.859  0.326 -53.197  

DOCKED: MODEL        7
DOCKED: USER    Run = 7
DOCKED: USER    DPF = pinene.dpf
DOCKED: USER  
DOCKED: USER    Estimated Free Energy of Binding    =   -6.40 kcal/mol  [=(1)+(2)+(3)-(4)]
DOCKED: USER    Estimated Inhibition Constant, Ki   =   20.45 uM (micromolar)  [Temperature = 298.15 K]
DOCKED: USER    
DOCKED: USER    (1) Final Intermolecular Energy     =   -6.40 kcal/mol
DOCKED: USER        vdW + Hbond + desolv Energy     =   -6.40 kcal/mol
DOCKED: USER        Electrostatic Energy            =   -0.00 kcal/mol
DOCKED: USER    (2) Final Total Internal Energy     =   +0.00 kcal/mol
DOCKED: USER    (3) Torsional Free Energy           =   +0.00 kcal/mol
DOCKED: USER    (4) Unbound System's Energy         =   +0.00 kcal/mol
DOCKED: USER    
DOCKED: USER    
DOCKED: USER    NEWDPF move pinene.pdbqt
DOCKED: USER    NEWDPF about 0.000100 0.000100 0.000100
DOCKED: USER    NEWDPF tran0 -20.416494 -1.737009 11.730138
DOCKED: USER    NEWDPF quaternion0 0.176287 -0.384820 0.145948 -0.894168
DOCKED: USER    NEWDPF axisangle0 0.393733 -0.859486 0.325972 -53.196530
DOCKED: USER    NEWDPF quat0 0.393733 -0.859486 0.325972 -53.196530
DOCKED: USER  keepresnum = 1 
DOCKED: USER  
DOCKED: REMARK  0 active torsions:
DOCKED: REMARK  status: ('A' for Active; 'I' for Inactive)
DOCKED: USER                              x       y       z     vdW  Elec       q    Type
DOCKED: USER                           _______ _______ _______ _____ _____    ______ ____
DOCKED: ROOT
DOCKED: ATOM      1  C   UNK     0     -21.165  -2.285  10.987 -0.67 -0.00    -0.036 C 
DOCKED: ATOM      2  C   UNK     0     -21.289  -0.737  11.162 -0.61 -0.00    -0.002 C 
DOCKED: ATOM      3  C   UNK     0     -19.634  -2.038  11.214 -0.67 +0.00    +0.022 C 
DOCKED: ATOM      4  C   UNK     0     -19.891  -0.684  10.468 -0.70 +0.00    +0.015 C 
DOCKED: ATOM      5  C   UNK     0     -21.247  -0.294  12.635 -0.55 +0.00    +0.033 C 
DOCKED: ATOM      6  C   UNK     0     -19.298  -1.835  12.664 -0.64 -0.00    -0.083 C 
DOCKED: ATOM      7  C   UNK     0     -21.516  -2.788   9.595 -0.70 +0.00    +0.016 C 
DOCKED: ATOM      8  C   UNK     0     -21.888  -3.158  11.992 -0.67 +0.00    +0.016 C 
DOCKED: ATOM      9  C   UNK     0     -20.097  -0.983  13.332 -0.55 -0.00    -0.024 C 
DOCKED: ATOM     10  C   UNK     0     -18.141  -2.566  13.253 -0.64 +0.00    +0.043 C 
DOCKED: ENDROOT
DOCKED: TORSDOF 0
DOCKED: TER
DOCKED: ENDMDL
________________________________________________________________________________


	BEGINNING GENETIC ALGORITHM DOCKING 8 of 10
Run: 8 Seed: 2060350090 869815946 [ Run 8 of 10 GA/GALS ]
Beginning LAMARCKIAN GENETIC ALGORITHM (LGA), with a maximum of 2500000 energy evaluations.

Final-Value: -6.397


	FINAL GENETIC ALGORITHM DOCKED STATE
	_______________________________________________


Detailed state:  trans -20.402 -1.725 11.734 quatxyzw 0.173143 -0.383202 0.142961 -0.895957 center 0.000 0.000 0.000 ntor 0
State:	-20.402  -1.725  11.734   0.390 -0.863  0.322 -52.737  

DOCKED: MODEL        8
DOCKED: USER    Run = 8
DOCKED: USER    DPF = pinene.dpf
DOCKED: USER  
DOCKED: USER    Estimated Free Energy of Binding    =   -6.40 kcal/mol  [=(1)+(2)+(3)-(4)]
DOCKED: USER    Estimated Inhibition Constant, Ki   =   20.46 uM (micromolar)  [Temperature = 298.15 K]
DOCKED: USER    
DOCKED: USER    (1) Final Intermolecular Energy     =   -6.40 kcal/mol
DOCKED: USER        vdW + Hbond + desolv Energy     =   -6.40 kcal/mol
DOCKED: USER        Electrostatic Energy            =   -0.00 kcal/mol
DOCKED: USER    (2) Final Total Internal Energy     =   +0.00 kcal/mol
DOCKED: USER    (3) Torsional Free Energy           =   +0.00 kcal/mol
DOCKED: USER    (4) Unbound System's Energy         =   +0.00 kcal/mol
DOCKED: USER    
DOCKED: USER    
DOCKED: USER    NEWDPF move pinene.pdbqt
DOCKED: USER    NEWDPF about 0.000100 0.000100 0.000100
DOCKED: USER    NEWDPF tran0 -20.401969 -1.725039 11.733685
DOCKED: USER    NEWDPF quaternion0 0.173143 -0.383202 0.142961 -0.895957
DOCKED: USER    NEWDPF axisangle0 0.389839 -0.862796 0.321884 -52.736634
DOCKED: USER    NEWDPF quat0 0.389839 -0.862796 0.321884 -52.736634
DOCKED: USER  keepresnum = 1 
DOCKED: USER  
DOCKED: REMARK  0 active torsions:
DOCKED: REMARK  status: ('A' for Active; 'I' for Inactive)
DOCKED: USER                              x       y       z     vdW  Elec       q    Type
DOCKED: USER                           _______ _______ _______ _____ _____    ______ ____
DOCKED: ROOT
DOCKED: ATOM      1  C   UNK     0     -21.157  -2.271  10.996 -0.67 -0.00    -0.036 C 
DOCKED: ATOM      2  C   UNK     0     -21.270  -0.721  11.165 -0.61 -0.00    -0.002 C 
DOCKED: ATOM      3  C   UNK     0     -19.624  -2.035  11.215 -0.67 +0.00    +0.022 C 
DOCKED: ATOM      4  C   UNK     0     -19.874  -0.682  10.464 -0.70 +0.00    +0.015 C 
DOCKED: ATOM      5  C   UNK     0     -21.218  -0.272  12.636 -0.55 +0.00    +0.033 C 
DOCKED: ATOM      6  C   UNK     0     -19.280  -1.828  12.663 -0.64 -0.00    -0.083 C 
DOCKED: ATOM      7  C   UNK     0     -21.519  -2.777   9.608 -0.70 +0.00    +0.016 C 
DOCKED: ATOM      8  C   UNK     0     -21.883  -3.133  12.009 -0.67 +0.00    +0.016 C 
DOCKED: ATOM      9  C   UNK     0     -20.069  -0.967  13.331 -0.55 -0.00    -0.024 C 
DOCKED: ATOM     10  C   UNK     0     -18.126  -2.565  13.250 -0.64 +0.00    +0.043 C 
DOCKED: ENDROOT
DOCKED: TORSDOF 0
DOCKED: TER
DOCKED: ENDMDL
________________________________________________________________________________


	BEGINNING GENETIC ALGORITHM DOCKING 9 of 10
Run: 9 Seed: 682414450 1562035498 [ Run 9 of 10 GA/GALS ]
Beginning LAMARCKIAN GENETIC ALGORITHM (LGA), with a maximum of 2500000 energy evaluations.

Final-Value: -6.396


	FINAL GENETIC ALGORITHM DOCKED STATE
	_______________________________________________


Detailed state:  trans -20.406 -1.740 11.742 quatxyzw -0.192468 0.389249 -0.134764 0.890663 center 0.000 0.000 0.000 ntor 0
State:	-20.406  -1.740  11.742  -0.423  0.856 -0.296 54.087  

DOCKED: MODEL        9
DOCKED: USER    Run = 9
DOCKED: USER    DPF = pinene.dpf
DOCKED: USER  
DOCKED: USER    Estimated Free Energy of Binding    =   -6.40 kcal/mol  [=(1)+(2)+(3)-(4)]
DOCKED: USER    Estimated Inhibition Constant, Ki   =   20.48 uM (micromolar)  [Temperature = 298.15 K]
DOCKED: USER    
DOCKED: USER    (1) Final Intermolecular Energy     =   -6.40 kcal/mol
DOCKED: USER        vdW + Hbond + desolv Energy     =   -6.40 kcal/mol
DOCKED: USER        Electrostatic Energy            =   -0.00 kcal/mol
DOCKED: USER    (2) Final Total Internal Energy     =   +0.00 kcal/mol
DOCKED: USER    (3) Torsional Free Energy           =   +0.00 kcal/mol
DOCKED: USER    (4) Unbound System's Energy         =   +0.00 kcal/mol
DOCKED: USER    
DOCKED: USER    
DOCKED: USER    NEWDPF move pinene.pdbqt
DOCKED: USER    NEWDPF about 0.000100 0.000100 0.000100
DOCKED: USER    NEWDPF tran0 -20.406407 -1.740298 11.742307
DOCKED: USER    NEWDPF quaternion0 -0.192468 0.389249 -0.134764 0.890663
DOCKED: USER    NEWDPF axisangle0 -0.423319 0.856123 -0.296402 54.086719
DOCKED: USER    NEWDPF quat0 -0.423319 0.856123 -0.296402 54.086719
DOCKED: USER  keepresnum = 1 
DOCKED: USER  
DOCKED: REMARK  0 active torsions:
DOCKED: REMARK  status: ('A' for Active; 'I' for Inactive)
DOCKED: USER                              x       y       z     vdW  Elec       q    Type
DOCKED: USER                           _______ _______ _______ _____ _____    ______ ____
DOCKED: ROOT
DOCKED: ATOM      1  C   UNK     0     -21.157  -2.252  10.976 -0.67 -0.00    -0.036 C 
DOCKED: ATOM      2  C   UNK     0     -21.270  -0.712  11.213 -0.61 -0.00    -0.002 C 
DOCKED: ATOM      3  C   UNK     0     -19.625  -2.027  11.216 -0.67 +0.00    +0.022 C 
DOCKED: ATOM      4  C   UNK     0     -19.869  -0.642  10.524 -0.70 +0.00    +0.015 C 
DOCKED: ATOM      5  C   UNK     0     -21.228  -0.328  12.703 -0.55 +0.00    +0.033 C 
DOCKED: ATOM      6  C   UNK     0     -19.291  -1.885  12.673 -0.64 -0.00    -0.083 C 
DOCKED: ATOM      7  C   UNK     0     -21.510  -2.696   9.564 -0.70 +0.00    +0.016 C 
DOCKED: ATOM      8  C   UNK     0     -21.890  -3.159  11.945 -0.68 +0.00    +0.016 C 
DOCKED: ATOM      9  C   UNK     0     -20.084  -1.054  13.374 -0.56 -0.00    -0.024 C 
DOCKED: ATOM     10  C   UNK     0     -18.141  -2.648  13.235 -0.63 +0.00    +0.043 C 
DOCKED: ENDROOT
DOCKED: TORSDOF 0
DOCKED: TER
DOCKED: ENDMDL
________________________________________________________________________________


	BEGINNING GENETIC ALGORITHM DOCKING 10 of 10
Run: 10 Seed: 225946992 1967992190 [ Run 10 of 10 GA/GALS ]
Beginning LAMARCKIAN GENETIC ALGORITHM (LGA), with a maximum of 2500000 energy evaluations.

Final-Value: -6.397


	FINAL GENETIC ALGORITHM DOCKED STATE
	_______________________________________________


Detailed state:  trans -20.421 -1.727 11.736 quatxyzw -0.183090 0.384400 -0.145591 0.893039 center 0.000 0.000 0.000 ntor 0
State:	-20.421  -1.727  11.736  -0.407  0.854 -0.324 53.485  

DOCKED: MODEL       10
DOCKED: USER    Run = 10
DOCKED: USER    DPF = pinene.dpf
DOCKED: USER  
DOCKED: USER    Estimated Free Energy of Binding    =   -6.40 kcal/mol  [=(1)+(2)+(3)-(4)]
DOCKED: USER    Estimated Inhibition Constant, Ki   =   20.48 uM (micromolar)  [Temperature = 298.15 K]
DOCKED: USER    
DOCKED: USER    (1) Final Intermolecular Energy     =   -6.40 kcal/mol
DOCKED: USER        vdW + Hbond + desolv Energy     =   -6.40 kcal/mol
DOCKED: USER        Electrostatic Energy            =   -0.00 kcal/mol
DOCKED: USER    (2) Final Total Internal Energy     =   +0.00 kcal/mol
DOCKED: USER    (3) Torsional Free Energy           =   +0.00 kcal/mol
DOCKED: USER    (4) Unbound System's Energy         =   +0.00 kcal/mol
DOCKED: USER    
DOCKED: USER    
DOCKED: USER    NEWDPF move pinene.pdbqt
DOCKED: USER    NEWDPF about 0.000100 0.000100 0.000100
DOCKED: USER    NEWDPF tran0 -20.420541 -1.727127 11.735523
DOCKED: USER    NEWDPF quaternion0 -0.183090 0.384400 -0.145591 0.893039
DOCKED: USER    NEWDPF axisangle0 -0.406884 0.854260 -0.323550 53.484778
DOCKED: USER    NEWDPF quat0 -0.406884 0.854260 -0.323550 53.484778
DOCKED: USER  keepresnum = 1 
DOCKED: USER  
DOCKED: REMARK  0 active torsions:
DOCKED: REMARK  status: ('A' for Active; 'I' for Inactive)
DOCKED: USER                              x       y       z     vdW  Elec       q    Type
DOCKED: USER                           _______ _______ _______ _____ _____    ______ ____
DOCKED: ROOT
DOCKED: ATOM      1  C   UNK     0     -21.167  -2.270  10.987 -0.67 -0.00    -0.036 C 
DOCKED: ATOM      2  C   UNK     0     -21.300  -0.725  11.182 -0.60 -0.00    -0.002 C 
DOCKED: ATOM      3  C   UNK     0     -19.637  -2.018  11.214 -0.67 +0.00    +0.022 C 
DOCKED: ATOM      4  C   UNK     0     -19.903  -0.656  10.486 -0.70 +0.00    +0.015 C 
DOCKED: ATOM      5  C   UNK     0     -21.257  -0.300  12.661 -0.55 +0.00    +0.033 C 
DOCKED: ATOM      6  C   UNK     0     -19.300  -1.831  12.666 -0.64 -0.00    -0.083 C 
DOCKED: ATOM      7  C   UNK     0     -21.519  -2.756   9.589 -0.70 +0.00    +0.016 C 
DOCKED: ATOM      8  C   UNK     0     -21.884  -3.159  11.983 -0.67 +0.00    +0.016 C 
DOCKED: ATOM      9  C   UNK     0     -20.101  -0.992  13.346 -0.55 -0.00    -0.024 C 
DOCKED: ATOM     10  C   UNK     0     -18.138  -2.564  13.243 -0.64 +0.00    +0.043 C 
DOCKED: ENDROOT
DOCKED: TORSDOF 0
DOCKED: TER
DOCKED: ENDMDL
________________________________________________________________________________

DPF> analysis                             # perform a ranked cluster analysis


		CLUSTER ANALYSIS OF CONFORMATIONS
		_________________________________

Number of conformations = 10

RMSD cluster analysis will be performed using the ligand atoms only (10 / 10 total atoms).

Outputting structurally similar clusters, ranked in order of increasing energy.


________________________________________________________________________________

Number of distinct conformational clusters found = 1,  out of 10 runs,
Using an rmsd-tolerance of 2.0 A


	CLUSTERING HISTOGRAM
	____________________

________________________________________________________________________________
     |           |     |           |     |                                    
Clus | Lowest    | Run | Mean      | Num | Histogram                          
-ter | Binding   |     | Binding   | in  |                                    
Rank | Energy    |     | Energy    | Clus|    5    10   15   20   25   30   35
_____|___________|_____|___________|_____|____:____|____:____|____:____|____:___
   1 |     -6.40 |   3 |     -6.40 |  10 |##########
_____|___________|_____|___________|_____|______________________________________


Number of multi-member conformational clusters found = 1, out of 10 runs.

	RMSD TABLE
	__________

_____________________________________________________________________
     |      |      |           |         |                 |
Rank | Sub- | Run  | Binding   | Cluster | Reference       | Grep
     | Rank |      | Energy    | RMSD    | RMSD            | Pattern
_____|______|______|___________|_________|_________________|___________
   1      1      3       -6.40      0.00     21.68           RANKING
   1      2      7       -6.40      0.01     21.69           RANKING
   1      3      5       -6.40      0.01     21.68           RANKING
   1      4      8       -6.40      0.02     21.68           RANKING
   1      5      4       -6.40      0.02     21.67           RANKING
   1      6      2       -6.40      0.02     21.69           RANKING
   1      7     10       -6.40      0.03     21.69           RANKING
   1      8      9       -6.40      0.07     21.68           RANKING
   1      9      6       -6.40      0.04     21.70           RANKING
   1     10      1       -6.39      0.11     21.69           RANKING
_______________________________________________________________________



	INFORMATION ENTROPY ANALYSIS FOR THIS CLUSTERING
	________________________________________________


Information entropy for this clustering = 0.00  (rmstol = 2.00 Angstrom)

_______________________________________________________________________


	STATISTICAL MECHANICAL ANALYSIS
	_______________________________


Partition function, Q =    10.11            at Temperature, T = 298.15 K
Free energy,        A ~ -1370.64 kcal/mol   at Temperature, T = 298.15 K
Internal energy,    U =    -6.40 kcal/mol   at Temperature, T = 298.15 K
Entropy,            S =     4.58 kcal/mol/K at Temperature, T = 298.15 K

_______________________________________________________________________


	LOWEST ENERGY DOCKED CONFORMATION from EACH CLUSTER
	___________________________________________________



Keeping original residue number (specified in the input PDBQ file) for outputting.

MODEL        3
USER    Run = 3
USER    Cluster Rank = 1
USER    Number of conformations in this cluster = 10
USER  
USER    RMSD from reference structure       = 21.682 A
USER  
USER    Estimated Free Energy of Binding    =   -6.40 kcal/mol  [=(1)+(2)+(3)-(4)]
USER    Estimated Inhibition Constant, Ki   =   20.43 uM (micromolar)  [Temperature = 298.15 K]
USER    
USER    (1) Final Intermolecular Energy     =   -6.40 kcal/mol
USER        vdW + Hbond + desolv Energy     =   -6.40 kcal/mol
USER        Electrostatic Energy            =   -0.00 kcal/mol
USER    (2) Final Total Internal Energy     =   +0.00 kcal/mol
USER    (3) Torsional Free Energy           =   +0.00 kcal/mol
USER    (4) Unbound System's Energy         =   +0.00 kcal/mol
USER    
USER    
USER  
USER    DPF = pinene.dpf
USER    NEWDPF move	pinene.pdbqt
USER    NEWDPF about	0.000100 0.000100 0.000100
USER    NEWDPF tran0	-20.411447 -1.727199 11.731682
USER    NEWDPF axisangle0	-0.391623 0.859487 -0.328501 53.076985
USER    NEWDPF quaternion0	-0.174977 0.384018 -0.146774 0.894634
USER  
USER                              x       y       z    vdW   Elec        q     RMS 
ATOM      1  C   UNK     0     -21.160  -2.279  10.991 -0.67 -0.00    -0.036    21.682
ATOM      2  C   UNK     0     -21.286  -0.730  11.161 -0.61 -0.00    -0.002    21.682
ATOM      3  C   UNK     0     -19.629  -2.030  11.215 -0.67 +0.00    +0.022    21.682
ATOM      4  C   UNK     0     -19.888  -0.678  10.465 -0.70 +0.00    +0.015    21.682
ATOM      5  C   UNK     0     -21.242  -0.282  12.633 -0.55 +0.00    +0.033    21.682
ATOM      6  C   UNK     0     -19.292  -1.822  12.664 -0.64 -0.00    -0.083    21.682
ATOM      7  C   UNK     0     -21.512  -2.786   9.601 -0.70 +0.00    +0.016    21.682
ATOM      8  C   UNK     0     -21.882  -3.148  12.000 -0.67 +0.00    +0.016    21.682
ATOM      9  C   UNK     0     -20.090  -0.968  13.331 -0.55 -0.00    -0.024    21.682
ATOM     10  C   UNK     0     -18.134  -2.550  13.255 -0.64 +0.00    +0.043    21.682
TER
ENDMDL


AVSFLD: # AVS field file
AVSFLD: #
AVSFLD: # Created by AutoDock
AVSFLD: #
AVSFLD: ndim=2           # number of dimensions in the field
AVSFLD: nspace=1         # number of physical coordinates
AVSFLD: veclen=7         # vector size
AVSFLD: dim1=10          # atoms
AVSFLD: dim2=1           # conformations
AVSFLD: data=Real       # data type (byte,integer,Real,double)
AVSFLD: field=uniform    # field coordinate layout
AVSFLD: label= x y z vdW Elec q RMS
AVSFLD: variable 1 file = pinene.dlg.pdb filetype = ascii offset = 5 stride = 12
AVSFLD: variable 2 file = pinene.dlg.pdb filetype = ascii offset = 6 stride = 12
AVSFLD: variable 3 file = pinene.dlg.pdb filetype = ascii offset = 7 stride = 12
AVSFLD: variable 4 file = pinene.dlg.pdb filetype = ascii offset = 8 stride = 12
AVSFLD: variable 5 file = pinene.dlg.pdb filetype = ascii offset = 9 stride = 12
AVSFLD: variable 6 file = pinene.dlg.pdb filetype = ascii offset = 10 stride = 12
AVSFLD: variable 7 file = pinene.dlg.pdb filetype = ascii offset = 11 stride = 12
AVSFLD: # end of file

>>> Closing the docking parameter file (DPF)...
This docking finished at:			2:44 20" p.m., 05/18/2023


________________________________________________________________________________

/usr/bin/autodock4: Successful Completion on "asus-F509FB"

Real= 1m 21.87s,  CPU= 1m 21.36s,  System= 0.28s
________________________________________________________________________________

