ATOM      1  OI3 CER     1      -2.363   6.416  25.885  1.00  0.00    -0.390 OA
ATOM      2  OI3 CER     1     -13.620  -1.753  25.917  1.00  0.00    -0.390 OA
ATOM      3  OI3 CER     1      11.139 -11.728  25.935  1.00  0.00    -0.390 OA
ATOM      4  OI3 CER     1      -7.707  18.912  25.939  1.00  0.00    -0.390 OA
ATOM      5  OI3 CER     1       9.660  20.316  25.911  1.00  0.00    -0.390 OA
ATOM      6  OI3 CER     1     -16.625  15.992  25.951  1.00  0.00    -0.390 OA
ATOM      7  OI3 CER     1       0.585  18.503  25.913  1.00  0.00    -0.390 OA
ATOM      8  OI3 CER     1      14.632  11.867  25.903  1.00  0.00    -0.390 OA
ATOM      9  OI3 CER     1     -30.212  11.214  25.918  1.00  0.00    -0.390 OA
ATOM     10  OI3 CER     1     -10.805 -17.602  25.889  1.00  0.00    -0.390 OA
ATOM     11  OI3 CER     1       3.487  29.072  25.909  1.00  0.00    -0.390 OA
ATOM     12  OI3 CER     1      -8.986  34.857  25.969  1.00  0.00    -0.390 OA
ATOM     13  OI3 CER     1       7.816 -40.653  25.932  1.00  0.00    -0.390 OA
ATOM     14  OI3 CER     1     -31.204 -27.664  25.941  1.00  0.00    -0.390 OA
ATOM     15  OI3 CER     1     -14.986 -39.077  25.895  1.00  0.00    -0.390 OA
ATOM     16  OI3 CER     1      23.777 -32.940  25.923  1.00  0.00    -0.390 OA
ATOM     17  OI3 CER     1      27.545  26.169  25.956  1.00  0.00    -0.390 OA
ATOM     18  OI3 CER     1      -3.567  44.454  25.900  1.00  0.00    -0.390 OA
ATOM     19  OI3 CER     1      -0.381 -32.878  25.927  1.00  0.00    -0.390 OA
ATOM     20  OI3 CER     1     -43.860 -16.898  25.892  1.00  0.00    -0.390 OA
ATOM     21  OI3 CER     1      34.515 -18.250  25.930  1.00  0.00    -0.390 OA
ATOM     22  OI3 CER     1      19.959  31.947  25.928  1.00  0.00    -0.390 OA
ATOM     23  OI3 CER     1     -22.669  30.734  25.907  1.00  0.00    -0.390 OA
ATOM     24  OI3 CER     1     -45.216   7.531  25.928  1.00  0.00    -0.390 OA
ATOM     25  OI3 CER     1      44.579   0.492  25.920  1.00  0.00    -0.390 OA
ATOM     26  OI3 CER     1      26.767 -39.136  25.761  1.00  0.00    -0.390 OA
ATOM     27  OI3 CER     1     -42.592  24.918  25.903  1.00  0.00    -0.390 OA
ATOM     28  OI3 CER     1     -20.168  51.973  25.928  1.00  0.00    -0.390 OA
ATOM     29  OI3 CER     1      -7.521  55.319  25.772  1.00  0.00    -0.390 OA
ATOM     30  OI3 CER     1      17.356  50.604  25.914  1.00  0.00    -0.390 OA
ATOM     31  OI3 CER     1     -28.907 -34.437  25.966  1.00  0.00    -0.390 OA
ATOM     32  OI3 CER     1      48.585 -30.071  25.942  1.00  0.00    -0.390 OA
ATOM     33  OI3 CER     1     -16.419 -47.068  25.897  1.00  0.00    -0.390 OA
ATOM     34  OI3 CER     1      -0.419 -47.229  25.908  1.00  0.00    -0.390 OA
ATOM     35  OI3 CER     1      29.411 -48.846  25.949  1.00  0.00    -0.390 OA
ATOM     36  OI3 CER     1      25.479  38.768  25.943  1.00  0.00    -0.390 OA
ATOM     37  OI3 CER     1      41.433  42.167  25.935  1.00  0.00    -0.390 OA
ATOM     38  OI3 CER     1     -56.728  20.193  25.778  1.00  0.00    -0.390 OA
ATOM     39  OI3 CER     1     -43.342  36.928  25.912  1.00  0.00    -0.390 OA
ATOM     40  OI3 CER     1     -59.243  -3.451  25.710  1.00  0.00    -0.390 OA
ATOM     41  OI3 CER     1      33.168 -38.375  26.059  1.00  0.00    -0.390 OA
ATOM     42  OI3 CER     1     -14.206 -58.571  25.878  1.00  0.00    -0.390 OA
ATOM     43  OI3 CER     1     -53.666  31.582  25.937  1.00  0.00    -0.390 OA
ATOM     44  OI3 CER     1      26.718  51.520  25.991  1.00  0.00    -0.390 OA
ATOM     45  OI3 CER     1     -23.237  45.614  25.905  1.00  0.00    -0.390 OA
ATOM     46  OI3 CER     1      53.655 -20.263  25.928  1.00  0.00    -0.390 OA
ATOM     47  OI3 CER     1     -34.189 -40.003  25.925  1.00  0.00    -0.390 OA
ATOM     48  OI3 CER     1     -39.116 -51.319  25.799  1.00  0.00    -0.390 OA
ATOM     49  OI3 CER     1      43.517  51.410  25.907  1.00  0.00    -0.390 OA
ATOM     50  OI3 CER     1      45.936  36.351  25.980  1.00  0.00    -0.390 OA
ATOM     51  OI3 CER     1      44.608 -44.831  25.956  1.00  0.00    -0.390 OA
ATOM     52  OI3 CER     1      47.237 -39.733  25.903  1.00  0.00    -0.390 OA
ATOM     53  OI3 CER     1     -47.516  49.157  25.930  1.00  0.00    -0.390 OA
ATOM     54  OI3 CER     1     -46.863 -48.715  25.950  1.00  0.00    -0.390 OA
ATOM     55  P   CER     1      -1.290   2.843  21.942  1.00  0.00     0.408 P 
ATOM     56  P   CER     1     -11.057   0.858  21.901  1.00  0.00     0.408 P 
ATOM     57  P   CER     1      10.195  -8.141  21.935  1.00  0.00     0.408 P 
ATOM     58  P   CER     1      -7.760  15.164  21.944  1.00  0.00     0.408 P 
ATOM     59  P   CER     1       9.965  16.672  21.985  1.00  0.00     0.408 P 
ATOM     60  P   CER     1     -16.954  12.319  21.941  1.00  0.00     0.408 P 
ATOM     61  P   CER     1      -2.575  20.148  22.058  1.00  0.00     0.408 P 
ATOM     62  P   CER     1      17.345  14.379  21.907  1.00  0.00     0.408 P 
ATOM     63  P   CER     1     -27.768   8.384  21.953  1.00  0.00     0.408 P 
ATOM     64  P   CER     1     -10.260 -21.295  21.931  1.00  0.00     0.408 P 
ATOM     65  P   CER     1      -0.228  29.361  21.917  1.00  0.00     0.408 P 
ATOM     66  P   CER     1     -11.525  32.059  21.938  1.00  0.00     0.408 P 
ATOM     67  P   CER     1       7.110 -37.005  21.896  1.00  0.00     0.408 P 
ATOM     68  P   CER     1     -28.682 -24.922  21.936  1.00  0.00     0.408 P 
ATOM     69  P   CER     1     -12.577 -36.216  21.951  1.00  0.00     0.408 P 
ATOM     70  P   CER     1      24.233 -29.256  21.913  1.00  0.00     0.408 P 
ATOM     71  P   CER     1      29.340  22.882  21.913  1.00  0.00     0.408 P 
ATOM     72  P   CER     1      -2.249  41.002  21.930  1.00  0.00     0.408 P 
ATOM     73  P   CER     1      -1.889 -36.165  21.899  1.00  0.00     0.408 P 
ATOM     74  P   CER     1     -40.160 -16.551  21.890  1.00  0.00     0.408 P 
ATOM     75  P   CER     1      33.397 -21.764  21.916  1.00  0.00     0.408 P 
ATOM     76  P   CER     1      23.315  33.354  22.060  1.00  0.00     0.408 P 
ATOM     77  P   CER     1     -26.081  32.272  21.896  1.00  0.00     0.408 P 
ATOM     78  P   CER     1     -44.702   3.862  21.931  1.00  0.00     0.408 P 
ATOM     79  P   CER     1      45.631   4.046  21.970  1.00  0.00     0.408 P 
ATOM     80  P   CER     1      30.144 -35.484  21.211  1.00  0.00     0.471 P 
ATOM     81  P   CER     1     -39.989  27.474  21.919  1.00  0.00     0.408 P 
ATOM     82  P   CER     1     -18.682  48.604  21.953  1.00  0.00     0.408 P 
ATOM     83  P   CER     1      -8.136  51.798  21.887  1.00  0.00     0.408 P 
ATOM     84  P   CER     1      13.799  49.802  21.912  1.00  0.00     0.408 P 
ATOM     85  P   CER     1     -30.255 -37.836  22.053  1.00  0.00     0.408 P 
ATOM     86  P   CER     1      44.858 -29.858  21.935  1.00  0.00     0.408 P 
ATOM     87  P   CER     1     -20.139 -46.550  21.961  1.00  0.00     0.408 P 
ATOM     88  P   CER     1       1.896 -50.165  21.897  1.00  0.00     0.408 P 
ATOM     89  P   CER     1      25.848 -47.906  21.952  1.00  0.00     0.408 P 
ATOM     90  P   CER     1      26.660  42.215  21.914  1.00  0.00     0.408 P 
ATOM     91  P   CER     1      37.973  40.683  21.974  1.00  0.00     0.408 P 
ATOM     92  P   CER     1     -52.192  19.482  22.191  1.00  0.00     0.408 P 
ATOM     93  P   CER     1     -39.864  38.251  21.953  1.00  0.00     0.408 P 
ATOM     94  P   CER     1     -56.380  -6.085  21.815  1.00  0.00     0.408 P 
ATOM     95  P   CER     1      32.064 -41.879  21.902  1.00  0.00     0.408 P 
ATOM     96  P   CER     1     -15.052 -54.397  22.422  1.00  0.00     0.408 P 
ATOM     97  P   CER     1     -50.704  29.392  21.947  1.00  0.00     0.408 P 
ATOM     98  P   CER     1      23.445  52.747  21.863  1.00  0.00     0.408 P 
ATOM     99  P   CER     1     -24.468  49.074  21.913  1.00  0.00     0.408 P 
ATOM    100  P   CER     1      52.390 -23.732  21.982  1.00  0.00     0.408 P 
ATOM    101  P   CER     1     -37.305 -42.207  21.961  1.00  0.00     0.408 P 
ATOM    102  P   CER     1     -35.395 -50.736  21.869  1.00  0.00     0.408 P 
ATOM    103  P   CER     1      40.156  49.852  21.944  1.00  0.00     0.408 P 
ATOM    104  P   CER     1      49.285  35.057  22.087  1.00  0.00     0.408 P 
ATOM    105  P   CER     1      42.238 -47.668  21.962  1.00  0.00     0.408 P 
ATOM    106  P   CER     1      47.984 -43.562  22.157  1.00  0.00     0.408 P 
ATOM    107  P   CER     1     -50.786  47.082  21.988  1.00  0.00     0.408 P 
ATOM    108  P   CER     1     -49.576 -51.290  21.946  1.00  0.00     0.408 P 
ATOM    109  C1F CER     1      -0.980   2.488  17.537  1.00  0.00     0.218 C 
ATOM    110  C1F CER     1     -10.974   1.411  17.533  1.00  0.00     0.218 C 
ATOM    111  C1F CER     1       9.974  -7.740  17.529  1.00  0.00     0.218 C 
ATOM    112  C1F CER     1      -7.580  14.746  17.533  1.00  0.00     0.218 C 
ATOM    113  C1F CER     1      10.026  16.350  17.502  1.00  0.00     0.218 C 
ATOM    114  C1F CER     1     -16.800  11.875  17.530  1.00  0.00     0.218 C 
ATOM    115  C1F CER     1      -2.574  20.149  17.821  1.00  0.00     0.197 C 
ATOM    116  C1F CER     1      17.539  14.826  17.534  1.00  0.00     0.218 C 
ATOM    117  C1F CER     1     -27.368   8.170  17.536  1.00  0.00     0.218 C 
ATOM    118  C1F CER     1     -10.024 -21.706  17.539  1.00  0.00     0.218 C 
ATOM    119  C1F CER     1      -0.716  29.252  17.519  1.00  0.00     0.218 C 
ATOM    120  C1F CER     1     -11.644  31.649  17.533  1.00  0.00     0.218 C 
ATOM    121  C1F CER     1       6.850 -36.613  17.522  1.00  0.00     0.218 C 
ATOM    122  C1F CER     1     -28.481 -24.499  17.535  1.00  0.00     0.218 C 
ATOM    123  C1F CER     1     -12.380 -35.824  17.535  1.00  0.00     0.218 C 
ATOM    124  C1F CER     1      24.035 -28.797  17.520  1.00  0.00     0.218 C 
ATOM    125  C1F CER     1      29.696  22.580  17.560  1.00  0.00     0.218 C 
ATOM    126  C1F CER     1      -1.933  40.657  17.532  1.00  0.00     0.218 C 
ATOM    127  C1F CER     1      -1.913 -36.647  17.536  1.00  0.00     0.218 C 
ATOM    128  C1F CER     1     -39.748 -16.339  17.536  1.00  0.00     0.218 C 
ATOM    129  C1F CER     1      33.461 -22.238  17.540  1.00  0.00     0.218 C 
ATOM    130  C1F CER     1      23.424  33.192  18.032  1.00  0.00     0.236 C 
ATOM    131  C1F CER     1     -26.532  32.298  17.541  1.00  0.00     0.218 C 
ATOM    132  C1F CER     1     -44.523   3.461  17.532  1.00  0.00     0.218 C 
ATOM    133  C1F CER     1      45.613   4.471  17.535  1.00  0.00     0.218 C 
ATOM    134  C1F CER     1      30.602 -36.094  17.673  1.00  0.00     0.236 C 
ATOM    135  C1F CER     1     -39.798  27.889  17.540  1.00  0.00     0.218 C 
ATOM    136  C1F CER     1     -18.951  47.986  17.453  1.00  0.00     0.218 C 
ATOM    137  C1F CER     1      -8.132  51.450  17.529  1.00  0.00     0.218 C 
ATOM    138  C1F CER     1      13.376  49.561  17.552  1.00  0.00     0.218 C 
ATOM    139  C1F CER     1     -29.702 -38.163  17.540  1.00  0.00     0.218 C 
ATOM    140  C1F CER     1      44.428 -30.054  17.558  1.00  0.00     0.218 C 
ATOM    141  C1F CER     1     -20.619 -46.589  17.536  1.00  0.00     0.218 C 
ATOM    142  C1F CER     1       2.317 -50.408  17.529  1.00  0.00     0.218 C 
ATOM    143  C1F CER     1      25.375 -47.962  17.536  1.00  0.00     0.218 C 
ATOM    144  C1F CER     1      26.585  42.688  17.564  1.00  0.00     0.218 C 
ATOM    145  C1F CER     1      37.695  40.322  17.545  1.00  0.00     0.218 C 
ATOM    146  C1F CER     1     -51.990  19.395  17.543  1.00  0.00     0.218 C 
ATOM    147  C1F CER     1     -39.537  38.594  17.540  1.00  0.00     0.218 C 
ATOM    148  C1F CER     1     -55.987  -6.518  17.525  1.00  0.00     0.218 C 
ATOM    149  C1F CER     1      31.817 -42.389  17.451  1.00  0.00     0.218 C 
ATOM    150  C1F CER     1     -14.853 -54.312  17.362  1.00  0.00     0.218 C 
ATOM    151  C1F CER     1     -50.280  29.357  17.524  1.00  0.00     0.218 C 
ATOM    152  C1F CER     1      23.203  53.413  17.686  1.00  0.00     0.218 C 
ATOM    153  C1F CER     1     -24.462  49.617  17.532  1.00  0.00     0.218 C 
ATOM    154  C1F CER     1      52.505 -24.114  17.538  1.00  0.00     0.218 C 
ATOM    155  C1F CER     1     -37.519 -42.594  17.546  1.00  0.00     0.218 C 
ATOM    156  C1F CER     1     -34.926 -50.629  17.643  1.00  0.00     0.218 C 
ATOM    157  C1F CER     1      39.874  49.495  17.551  1.00  0.00     0.218 C 
ATOM    158  C1F CER     1      49.494  35.260  17.685  1.00  0.00     0.218 C 
ATOM    159  C1F CER     1      42.049 -48.082  17.534  1.00  0.00     0.218 C 
ATOM    160  C1F CER     1      48.503 -44.037  16.672  1.00  0.00     0.236 C 
ATOM    161  C1F CER     1     -50.888  46.661  17.519  1.00  0.00     0.218 C 
ATOM    162  C1F CER     1     -49.780 -51.666  17.519  1.00  0.00     0.218 C 
ATOM    163  C1S CER     1      -0.468   1.066  20.237  1.00  0.00     0.209 C 
ATOM    164  C1S CER     1     -10.020   2.573  20.233  1.00  0.00     0.209 C 
ATOM    165  C1S CER     1       9.511  -6.320  20.232  1.00  0.00     0.209 C 
ATOM    166  C1S CER     1      -7.491  13.264  20.227  1.00  0.00     0.209 C 
ATOM    167  C1S CER     1      10.243  14.885  20.300  1.00  0.00     0.209 C 
ATOM    168  C1S CER     1     -16.849  10.369  20.225  1.00  0.00     0.209 C 
ATOM    169  C1S CER     1      -4.142  21.082  20.576  1.00  0.00     0.203 C 
ATOM    170  C1S CER     1      18.598  15.884  20.214  1.00  0.00     0.209 C 
ATOM    171  C1S CER     1     -26.281   7.115  20.238  1.00  0.00     0.209 C 
ATOM    172  C1S CER     1      -9.684 -23.154  20.223  1.00  0.00     0.209 C 
ATOM    173  C1S CER     1      -2.181  29.242  20.202  1.00  0.00     0.209 C 
ATOM    174  C1S CER     1     -12.567  30.436  20.229  1.00  0.00     0.209 C 
ATOM    175  C1S CER     1       6.404 -35.169  20.225  1.00  0.00     0.209 C 
ATOM    176  C1S CER     1     -27.559 -23.325  20.235  1.00  0.00     0.209 C 
ATOM    177  C1S CER     1     -11.466 -34.612  20.236  1.00  0.00     0.209 C 
ATOM    178  C1S CER     1      24.096 -27.294  20.231  1.00  0.00     0.209 C 
ATOM    179  C1S CER     1      30.489  21.313  20.234  1.00  0.00     0.209 C 
ATOM    180  C1S CER     1      -1.328  39.259  20.239  1.00  0.00     0.209 C 
ATOM    181  C1S CER     1      -2.463 -38.062  20.238  1.00  0.00     0.209 C 
ATOM    182  C1S CER     1     -38.264 -16.061  20.218  1.00  0.00     0.209 C 
ATOM    183  C1S CER     1      33.091 -23.705  20.235  1.00  0.00     0.209 C 
ATOM    184  C1S CER     1      25.113  34.173  20.748  1.00  0.00     0.187 C 
ATOM    185  C1S CER     1     -27.958  32.784  20.217  1.00  0.00     0.209 C 
ATOM    186  C1S CER     1     -44.232   1.975  20.232  1.00  0.00     0.209 C 
ATOM    187  C1S CER     1      45.924   5.939  20.238  1.00  0.00     0.209 C 
ATOM    188  C1S CER     1      32.588 -35.002  20.415  1.00  0.00     0.006 C 
ATOM    189  C1S CER     1     -38.808  29.031  20.232  1.00  0.00     0.209 C 
ATOM    190  C1S CER     1     -18.181  46.685  20.340  1.00  0.00     0.209 C 
ATOM    191  C1S CER     1      -8.282  49.923  20.210  1.00  0.00     0.209 C 
ATOM    192  C1S CER     1      11.917  49.171  20.234  1.00  0.00     0.209 C 
ATOM    193  C1S CER     1     -30.452 -39.820  20.433  1.00  0.00     0.208 C 
ATOM    194  C1S CER     1      42.915 -30.061  20.237  1.00  0.00     0.209 C 
ATOM    195  C1S CER     1     -22.086 -46.535  20.238  1.00  0.00     0.209 C 
ATOM    196  C1S CER     1       3.352 -51.504  20.211  1.00  0.00     0.209 C 
ATOM    197  C1S CER     1      23.896 -47.683  20.247  1.00  0.00     0.209 C 
ATOM    198  C1S CER     1      27.024  44.103  20.236  1.00  0.00     0.209 C 
ATOM    199  C1S CER     1      36.354  39.630  20.244  1.00  0.00     0.209 C 
ATOM    200  C1S CER     1     -50.437  19.160  20.254  1.00  0.00     0.209 C 
ATOM    201  C1S CER     1     -38.201  39.254  20.225  1.00  0.00     0.209 C 
ATOM    202  C1S CER     1     -54.721  -7.342  20.184  1.00  0.00     0.209 C 
ATOM    203  C1S CER     1      31.419 -43.648  20.167  1.00  0.00     0.209 C 
ATOM    204  C1S CER     1     -15.093 -52.975  20.289  1.00  0.00     0.209 C 
ATOM    205  C1S CER     1     -48.956  28.671  20.233  1.00  0.00     0.209 C 
ATOM    206  C1S CER     1      21.584  53.731  20.488  1.00  0.00     0.209 C 
ATOM    207  C1S CER     1     -25.029  51.013  20.206  1.00  0.00     0.209 C 
ATOM    208  C1S CER     1      52.091 -25.475  20.259  1.00  0.00     0.209 C 
ATOM    209  C1S CER     1     -38.639 -43.546  20.253  1.00  0.00     0.209 C 
ATOM    210  C1S CER     1     -33.491 -50.135  20.250  1.00  0.00     0.209 C 
ATOM    211  C1S CER     1      38.566  48.738  20.233  1.00  0.00     0.209 C 
ATOM    212  C1S CER     1      51.002  34.651  20.453  1.00  0.00     0.208 C 
ATOM    213  C1S CER     1      41.132 -49.288  20.239  1.00  0.00     0.209 C 
ATOM    214  C1S CER     1      48.709 -45.602  20.332  1.00  0.00     0.208 C 
ATOM    215  C1S CER     1     -52.078  45.707  20.231  1.00  0.00     0.209 C 
ATOM    216  C1S CER     1     -50.806 -52.781  20.190  1.00  0.00     0.209 C 
ATOM    217  C2F CER     1      -2.086   2.747  16.546  1.00  0.00     0.103 C 
ATOM    218  C2F CER     1     -10.633   0.318  16.550  1.00  0.00     0.103 C 
ATOM    219  C2F CER     1      11.044  -8.037  16.522  1.00  0.00     0.103 C 
ATOM    220  C2F CER     1      -8.558  15.357  16.572  1.00  0.00     0.103 C 
ATOM    221  C2F CER     1       9.081  16.770  16.487  1.00  0.00     0.103 C 
ATOM    222  C2F CER     1     -17.722  12.535  16.541  1.00  0.00     0.103 C 
ATOM    223  C2F CER     1      -2.064  20.759  16.541  1.00  0.00     0.096 C 
ATOM    224  C2F CER     1      17.815  13.722  16.556  1.00  0.00     0.103 C 
ATOM    225  C2F CER     1     -28.478   7.954  16.543  1.00  0.00     0.103 C 
ATOM    226  C2F CER     1     -11.112 -21.329  16.575  1.00  0.00     0.103 C 
ATOM    227  C2F CER     1      -0.043  30.210  16.585  1.00  0.00     0.103 C 
ATOM    228  C2F CER     1     -12.003  32.727  16.545  1.00  0.00     0.103 C 
ATOM    229  C2F CER     1       7.933 -36.941  16.547  1.00  0.00     0.103 C 
ATOM    230  C2F CER     1     -28.141 -25.582  16.541  1.00  0.00     0.103 C 
ATOM    231  C2F CER     1     -12.026 -36.898  16.543  1.00  0.00     0.103 C 
ATOM    232  C2F CER     1      24.962 -29.464  16.540  1.00  0.00     0.103 C 
ATOM    233  C2F CER     1      28.593  22.571  16.590  1.00  0.00     0.103 C 
ATOM    234  C2F CER     1      -3.049  40.861  16.543  1.00  0.00     0.103 C 
ATOM    235  C2F CER     1      -2.552 -35.722  16.548  1.00  0.00     0.103 C 
ATOM    236  C2F CER     1     -40.215 -17.372  16.547  1.00  0.00     0.103 C 
ATOM    237  C2F CER     1      32.706 -21.392  16.550  1.00  0.00     0.103 C 
ATOM    238  C2F CER     1      23.472  32.465  16.637  1.00  0.00     0.104 C 
ATOM    239  C2F CER     1     -25.621  32.975  16.555  1.00  0.00     0.103 C 
ATOM    240  C2F CER     1     -45.565   3.898  16.541  1.00  0.00     0.103 C 
ATOM    241  C2F CER     1      46.368   3.624  16.561  1.00  0.00     0.103 C 
ATOM    242  C2F CER     1      31.039 -37.171  16.556  1.00  0.00     0.104 C 
ATOM    243  C2F CER     1     -39.513  26.791  16.554  1.00  0.00     0.103 C 
ATOM    244  C2F CER     1     -19.870  48.206  16.371  1.00  0.00     0.103 C 
ATOM    245  C2F CER     1      -8.981  52.194  16.551  1.00  0.00     0.103 C 
ATOM    246  C2F CER     1      13.704  50.625  16.571  1.00  0.00     0.103 C 
ATOM    247  C2F CER     1     -30.608 -37.651  16.356  1.00  0.00     0.103 C 
ATOM    248  C2F CER     1      45.055 -29.106  16.557  1.00  0.00     0.103 C 
ATOM    249  C2F CER     1     -19.966 -45.622  16.578  1.00  0.00     0.103 C 
ATOM    250  C2F CER     1       1.194 -50.580  16.543  1.00  0.00     0.103 C 
ATOM    251  C2F CER     1      26.177 -47.156  16.546  1.00  0.00     0.103 C 
ATOM    252  C2F CER     1      27.327  41.897  16.608  1.00  0.00     0.103 C 
ATOM    253  C2F CER     1      37.822  41.452  16.549  1.00  0.00     0.103 C 
ATOM    254  C2F CER     1     -52.726  18.532  16.544  1.00  0.00     0.103 C 
ATOM    255  C2F CER     1     -39.725  37.478  16.546  1.00  0.00     0.103 C 
ATOM    256  C2F CER     1     -57.028  -6.947  16.529  1.00  0.00     0.103 C 
ATOM    257  C2F CER     1      31.073 -41.471  16.553  1.00  0.00     0.103 C 
ATOM    258  C2F CER     1     -13.845 -54.662  16.407  1.00  0.00     0.103 C 
ATOM    259  C2F CER     1     -51.311  28.817  16.570  1.00  0.00     0.103 C 
ATOM    260  C2F CER     1      23.942  53.793  16.468  1.00  0.00     0.103 C 
ATOM    261  C2F CER     1     -23.366  49.340  16.548  1.00  0.00     0.103 C 
ATOM    262  C2F CER     1      51.767 -23.301  16.560  1.00  0.00     0.103 C 
ATOM    263  C2F CER     1     -37.645 -41.483  16.542  1.00  0.00     0.103 C 
ATOM    264  C2F CER     1     -35.350 -51.727  16.667  1.00  0.00     0.103 C 
ATOM    265  C2F CER     1      40.003  50.639  16.592  1.00  0.00     0.103 C 
ATOM    266  C2F CER     1      48.860  34.386  16.569  1.00  0.00     0.103 C 
ATOM    267  C2F CER     1      41.671 -47.025  16.533  1.00  0.00     0.103 C 
ATOM    268  C2F CER     1      47.214 -43.436  15.936  1.00  0.00     0.104 C 
ATOM    269  C2F CER     1     -50.977  47.791  16.525  1.00  0.00     0.103 C 
ATOM    270  C2F CER     1     -50.053 -50.573  16.538  1.00  0.00     0.103 C 
ATOM    271  C2S CER     1      -0.030   0.622  18.793  1.00  0.00     0.141 C 
ATOM    272  C2S CER     1      -9.842   3.158  18.780  1.00  0.00     0.141 C 
ATOM    273  C2S CER     1       9.123  -5.857  18.782  1.00  0.00     0.141 C 
ATOM    274  C2S CER     1      -7.253  12.716  18.773  1.00  0.00     0.141 C 
ATOM    275  C2S CER     1      10.350  14.512  18.799  1.00  0.00     0.141 C 
ATOM    276  C2S CER     1     -16.630   9.797  18.773  1.00  0.00     0.141 C 
ATOM    277  C2S CER     1      -4.330  21.774  19.176  1.00  0.00     0.107 C 
ATOM    278  C2S CER     1      18.791  16.478  18.762  1.00  0.00     0.141 C 
ATOM    279  C2S CER     1     -25.733   6.878  18.779  1.00  0.00     0.141 C 
ATOM    280  C2S CER     1      -9.334 -23.667  18.779  1.00  0.00     0.141 C 
ATOM    281  C2S CER     1      -2.754  29.011  18.761  1.00  0.00     0.141 C 
ATOM    282  C2S CER     1     -12.723  29.855  18.782  1.00  0.00     0.141 C 
ATOM    283  C2S CER     1       6.028 -34.689  18.772  1.00  0.00     0.141 C 
ATOM    284  C2S CER     1     -27.382 -22.735  18.790  1.00  0.00     0.141 C 
ATOM    285  C2S CER     1     -11.305 -34.033  18.780  1.00  0.00     0.141 C 
ATOM    286  C2S CER     1      23.895 -26.715  18.781  1.00  0.00     0.141 C 
ATOM    287  C2S CER     1      30.986  20.949  18.792  1.00  0.00     0.141 C 
ATOM    288  C2S CER     1      -0.893  38.837  18.785  1.00  0.00     0.141 C 
ATOM    289  C2S CER     1      -2.450 -38.663  18.787  1.00  0.00     0.141 C 
ATOM    290  C2S CER     1     -37.744 -15.754  18.770  1.00  0.00     0.141 C 
ATOM    291  C2S CER     1      33.182 -24.306  18.789  1.00  0.00     0.141 C 
ATOM    292  C2S CER     1      25.830  34.143  19.462  1.00  0.00     0.023 C 
ATOM    293  C2S CER     1     -28.575  32.772  18.779  1.00  0.00     0.141 C 
ATOM    294  C2S CER     1     -43.901   1.460  18.784  1.00  0.00     0.141 C 
ATOM    295  C2S CER     1      45.830   6.533  18.783  1.00  0.00     0.141 C 
ATOM    296  C2S CER     1      32.342 -34.212  19.164  1.00  0.00    -0.006 C 
ATOM    297  C2S CER     1     -38.598  29.599  18.782  1.00  0.00     0.141 C 
ATOM    298  C2S CER     1     -17.991  46.123  18.869  1.00  0.00     0.141 C 
ATOM    299  C2S CER     1      -8.208  49.387  18.741  1.00  0.00     0.141 C 
ATOM    300  C2S CER     1      11.441  48.796  18.785  1.00  0.00     0.141 C 
ATOM    301  C2S CER     1     -30.089 -40.407  19.025  1.00  0.00     0.133 C 
ATOM    302  C2S CER     1      42.352 -30.293  18.783  1.00  0.00     0.141 C 
ATOM    303  C2S CER     1     -22.673 -46.726  18.786  1.00  0.00     0.141 C 
ATOM    304  C2S CER     1       3.903 -51.760  18.765  1.00  0.00     0.141 C 
ATOM    305  C2S CER     1      23.295 -47.800  18.795  1.00  0.00     0.141 C 
ATOM    306  C2S CER     1      26.922  44.655  18.789  1.00  0.00     0.141 C 
ATOM    307  C2S CER     1      35.956  39.160  18.789  1.00  0.00     0.141 C 
ATOM    308  C2S CER     1     -49.890  19.337  18.775  1.00  0.00     0.141 C 
ATOM    309  C2S CER     1     -37.769  39.697  18.771  1.00  0.00     0.141 C 
ATOM    310  C2S CER     1     -54.120  -7.470  18.752  1.00  0.00     0.141 C 
ATOM    311  C2S CER     1      31.515 -44.263  18.713  1.00  0.00     0.141 C 
ATOM    312  C2S CER     1     -15.708 -52.700  18.813  1.00  0.00     0.141 C 
ATOM    313  C2S CER     1     -48.392  28.630  18.775  1.00  0.00     0.141 C 
ATOM    314  C2S CER     1      21.045  54.314  19.101  1.00  0.00     0.141 C 
ATOM    315  C2S CER     1     -25.400  51.483  18.760  1.00  0.00     0.141 C 
ATOM    316  C2S CER     1      52.134 -25.996  18.776  1.00  0.00     0.141 C 
ATOM    317  C2S CER     1     -38.961 -44.063  18.826  1.00  0.00     0.141 C 
ATOM    318  C2S CER     1     -33.011 -49.811  18.800  1.00  0.00     0.141 C 
ATOM    319  C2S CER     1      38.183  48.264  18.781  1.00  0.00     0.141 C 
ATOM    320  C2S CER     1      51.589  35.221  19.152  1.00  0.00     0.133 C 
ATOM    321  C2S CER     1      40.985 -49.879  18.783  1.00  0.00     0.141 C 
ATOM    322  C2S CER     1      48.966 -45.996  18.634  1.00  0.00     0.033 C 
ATOM    323  C2S CER     1     -52.347  45.188  18.771  1.00  0.00     0.141 C 
ATOM    324  C2S CER     1     -51.000 -53.355  18.736  1.00  0.00     0.141 C 
ATOM    325  O2  CER     1      -2.134   4.209  24.417  1.00  0.00    -0.390 OA
ATOM    326  O2  CER     1     -11.864  -0.362  24.461  1.00  0.00    -0.390 OA
ATOM    327  O2  CER     1      10.998  -9.496  24.410  1.00  0.00    -0.390 OA
ATOM    328  O2  CER     1      -8.110  16.701  24.452  1.00  0.00    -0.390 OA
ATOM    329  O2  CER     1       9.344  18.132  24.402  1.00  0.00    -0.390 OA
ATOM    330  O2  CER     1     -17.183  13.819  24.455  1.00  0.00    -0.390 OA
ATOM    331  O2  CER     1      -1.194  19.811  24.501  1.00  0.00    -0.390 OA
ATOM    332  O2  CER     1      16.523  13.087  24.452  1.00  0.00    -0.390 OA
ATOM    333  O2  CER     1     -29.115   9.222  24.453  1.00  0.00    -0.390 OA
ATOM    334  O2  CER     1     -10.924 -19.840  24.382  1.00  0.00    -0.390 OA
ATOM    335  O2  CER     1       1.322  29.735  24.424  1.00  0.00    -0.390 OA
ATOM    336  O2  CER     1     -10.836  33.495  24.439  1.00  0.00    -0.390 OA
ATOM    337  O2  CER     1       7.806 -38.402  24.403  1.00  0.00    -0.390 OA
ATOM    338  O2  CER     1     -29.365 -26.335  24.439  1.00  0.00    -0.390 OA
ATOM    339  O2  CER     1     -13.234 -37.672  24.456  1.00  0.00    -0.390 OA
ATOM    340  O2  CER     1      24.399 -30.752  24.463  1.00  0.00    -0.390 OA
ATOM    341  O2  CER     1      28.307  24.029  24.417  1.00  0.00    -0.390 OA
ATOM    342  O2  CER     1      -3.136  42.270  24.422  1.00  0.00    -0.390 OA
ATOM    343  O2  CER     1      -1.637 -34.632  24.402  1.00  0.00    -0.390 OA
ATOM    344  O2  CER     1     -41.594 -17.124  24.406  1.00  0.00    -0.390 OA
ATOM    345  O2  CER     1      33.446 -20.195  24.425  1.00  0.00    -0.390 OA
ATOM    346  O2  CER     1      22.125  32.347  24.446  1.00  0.00    -0.390 OA
ATOM    347  O2  CER     1     -24.539  32.051  24.412  1.00  0.00    -0.390 OA
ATOM    348  O2  CER     1     -45.341   5.303  24.424  1.00  0.00    -0.390 OA
ATOM    349  O2  CER     1      45.551   2.484  24.445  1.00  0.00    -0.390 OA
ATOM    350  O2  CER     1      29.313 -38.422  25.391  1.00  0.00    -0.390 OA
ATOM    351  O2  CER     1     -40.806  26.199  24.430  1.00  0.00    -0.390 OA
ATOM    352  O2  CER     1     -19.839  49.752  24.415  1.00  0.00    -0.390 OA
ATOM    353  O2  CER     1      -8.310  53.216  24.417  1.00  0.00    -0.390 OA
ATOM    354  O2  CER     1      15.152  50.485  24.420  1.00  0.00    -0.390 OA
ATOM    355  O2  CER     1     -30.104 -36.310  24.496  1.00  0.00    -0.390 OA
ATOM    356  O2  CER     1      46.394 -29.571  24.431  1.00  0.00    -0.390 OA
ATOM    357  O2  CER     1     -18.568 -46.360  24.446  1.00  0.00    -0.390 OA
ATOM    358  O2  CER     1       0.693 -49.271  24.470  1.00  0.00    -0.390 OA
ATOM    359  O2  CER     1      27.392 -47.913  24.452  1.00  0.00    -0.390 OA
ATOM    360  O2  CER     1      26.486  40.691  24.399  1.00  0.00    -0.390 OA
ATOM    361  O2  CER     1      39.233  41.682  24.426  1.00  0.00    -0.390 OA
ATOM    362  O2  CER     1     -54.146  18.976  24.326  1.00  0.00    -0.390 OA
ATOM    363  O2  CER     1     -41.143  37.352  24.423  1.00  0.00    -0.390 OA
ATOM    364  O2  CER     1     -57.402  -5.084  24.567  1.00  0.00    -0.390 OA
ATOM    365  O2  CER     1      32.051 -40.413  24.496  1.00  0.00    -0.390 OA
ATOM    366  O2  CER     1     -14.079 -56.305  24.665  1.00  0.00    -0.390 OA
ATOM    367  O2  CER     1     -52.206  29.895  24.417  1.00  0.00    -0.390 OA
ATOM    368  O2  CER     1      24.932  52.741  24.419  1.00  0.00    -0.390 OA
ATOM    369  O2  CER     1     -23.405  47.924  24.444  1.00  0.00    -0.390 OA
ATOM    370  O2  CER     1      52.484 -22.195  24.496  1.00  0.00    -0.390 OA
ATOM    371  O2  CER     1     -36.294 -41.005  24.433  1.00  0.00    -0.390 OA
ATOM    372  O2  CER     1     -36.834 -51.382  24.381  1.00  0.00    -0.390 OA
ATOM    373  O2  CER     1      41.391  50.869  24.399  1.00  0.00    -0.390 OA
ATOM    374  O2  CER     1      47.767  35.201  24.480  1.00  0.00    -0.390 OA
ATOM    375  O2  CER     1      42.878 -46.287  24.454  1.00  0.00    -0.390 OA
ATOM    376  O2  CER     1      47.092 -42.016  24.442  1.00  0.00    -0.390 OA
ATOM    377  O2  CER     1     -49.647  48.206  24.512  1.00  0.00    -0.390 OA
ATOM    378  O2  CER     1     -48.808 -49.914  24.448  1.00  0.00    -0.390 OA
ATOM    379  C3F CER     1      -2.191   4.175  15.992  1.00  0.00     0.009 C 
ATOM    380  C3F CER     1     -11.798  -0.500  15.999  1.00  0.00     0.009 C 
ATOM    381  C3F CER     1      11.068  -9.434  15.911  1.00  0.00     0.009 C 
ATOM    382  C3F CER     1      -8.230  16.730  15.993  1.00  0.00     0.009 C 
ATOM    383  C3F CER     1       9.328  18.156  15.972  1.00  0.00     0.009 C 
ATOM    384  C3F CER     1     -17.282  13.889  15.974  1.00  0.00     0.009 C 
ATOM    385  C3F CER     1      -1.016  19.888  15.927  1.00  0.00     0.009 C 
ATOM    386  C3F CER     1      16.602  13.033  15.982  1.00  0.00     0.009 C 
ATOM    387  C3F CER     1     -29.172   9.201  15.981  1.00  0.00     0.009 C 
ATOM    388  C3F CER     1     -11.031 -19.961  15.958  1.00  0.00     0.009 C 
ATOM    389  C3F CER     1       1.283  29.772  16.015  1.00  0.00     0.009 C 
ATOM    390  C3F CER     1     -10.847  33.575  15.997  1.00  0.00     0.009 C 
ATOM    391  C3F CER     1       7.919 -38.351  16.003  1.00  0.00     0.009 C 
ATOM    392  C3F CER     1     -29.304 -26.396  15.955  1.00  0.00     0.009 C 
ATOM    393  C3F CER     1     -13.188 -37.736  15.993  1.00  0.00     0.009 C 
ATOM    394  C3F CER     1      24.507 -30.818  15.985  1.00  0.00     0.009 C 
ATOM    395  C3F CER     1      28.228  23.912  16.047  1.00  0.00     0.009 C 
ATOM    396  C3F CER     1      -3.219  42.283  15.992  1.00  0.00     0.009 C 
ATOM    397  C3F CER     1      -1.632 -34.622  16.031  1.00  0.00     0.009 C 
ATOM    398  C3F CER     1     -41.631 -17.209  15.990  1.00  0.00     0.009 C 
ATOM    399  C3F CER     1      33.427 -20.158  15.987  1.00  0.00     0.009 C 
ATOM    400  C3F CER     1      22.121  32.273  15.913  1.00  0.00     0.009 C 
ATOM    401  C3F CER     1     -24.480  32.129  16.005  1.00  0.00     0.009 C 
ATOM    402  C3F CER     1     -45.422   5.320  15.983  1.00  0.00     0.009 C 
ATOM    403  C3F CER     1      45.663   2.381  16.015  1.00  0.00     0.009 C 
ATOM    404  C3F CER     1      29.842 -37.850  15.906  1.00  0.00     0.009 C 
ATOM    405  C3F CER     1     -40.721  26.039  16.012  1.00  0.00     0.009 C 
ATOM    406  C3F CER     1     -19.970  49.700  15.997  1.00  0.00     0.009 C 
ATOM    407  C3F CER     1      -8.433  53.523  16.014  1.00  0.00     0.009 C 
ATOM    408  C3F CER     1      15.108  50.593  16.014  1.00  0.00     0.009 C 
ATOM    409  C3F CER     1     -29.975 -36.460  16.034  1.00  0.00     0.009 C 
ATOM    410  C3F CER     1      46.435 -29.481  15.995  1.00  0.00     0.009 C 
ATOM    411  C3F CER     1     -18.619 -46.007  16.082  1.00  0.00     0.009 C 
ATOM    412  C3F CER     1       0.555 -49.296  15.999  1.00  0.00     0.009 C 
ATOM    413  C3F CER     1      27.448 -47.815  15.991  1.00  0.00     0.009 C 
ATOM    414  C3F CER     1      26.555  40.764  16.066  1.00  0.00     0.009 C 
ATOM    415  C3F CER     1      39.206  41.728  15.939  1.00  0.00     0.009 C 
ATOM    416  C3F CER     1     -54.027  19.107  15.976  1.00  0.00     0.009 C 
ATOM    417  C3F CER     1     -41.133  37.261  15.969  1.00  0.00     0.009 C 
ATOM    418  C3F CER     1     -57.936  -5.865  15.927  1.00  0.00     0.009 C 
ATOM    419  C3F CER     1      31.866 -40.294  16.042  1.00  0.00     0.009 C 
ATOM    420  C3F CER     1     -14.021 -56.114  15.965  1.00  0.00     0.009 C 
ATOM    421  C3F CER     1     -52.339  29.767  15.968  1.00  0.00     0.009 C 
ATOM    422  C3F CER     1      25.021  52.792  15.966  1.00  0.00     0.009 C 
ATOM    423  C3F CER     1     -23.294  47.909  16.010  1.00  0.00     0.009 C 
ATOM    424  C3F CER     1      52.547 -22.156  16.015  1.00  0.00     0.009 C 
ATOM    425  C3F CER     1     -36.356 -40.924  15.934  1.00  0.00     0.009 C 
ATOM    426  C3F CER     1     -36.707 -51.712  15.962  1.00  0.00     0.009 C 
ATOM    427  C3F CER     1      41.386  50.955  15.992  1.00  0.00     0.009 C 
ATOM    428  C3F CER     1      47.696  35.121  15.927  1.00  0.00     0.009 C 
ATOM    429  C3F CER     1      42.806 -46.190  15.921  1.00  0.00     0.009 C 
ATOM    430  C3F CER     1      47.168 -41.904  15.643  1.00  0.00     0.009 C 
ATOM    431  C3F CER     1     -49.643  48.284  15.944  1.00  0.00     0.009 C 
ATOM    432  C3F CER     1     -48.819 -49.868  15.991  1.00  0.00     0.009 C 
ATOM    433  C3S CER     1       0.161  -0.912  18.612  1.00  0.00     0.165 C 
ATOM    434  C3S CER     1      -8.619   4.098  18.607  1.00  0.00     0.165 C 
ATOM    435  C3S CER     1       9.029  -4.325  18.598  1.00  0.00     0.165 C 
ATOM    436  C3S CER     1      -7.645  11.256  18.561  1.00  0.00     0.165 C 
ATOM    437  C3S CER     1      10.241  13.135  18.500  1.00  0.00     0.165 C 
ATOM    438  C3S CER     1     -17.024   8.305  18.605  1.00  0.00     0.165 C 
ATOM    439  C3S CER     1      -5.974  22.565  18.615  1.00  0.00     0.180 C 
ATOM    440  C3S CER     1      20.063  17.335  18.570  1.00  0.00     0.165 C 
ATOM    441  C3S CER     1     -24.919   5.570  18.593  1.00  0.00     0.165 C 
ATOM    442  C3S CER     1      -9.364 -25.211  18.597  1.00  0.00     0.165 C 
ATOM    443  C3S CER     1      -4.248  29.385  18.597  1.00  0.00     0.165 C 
ATOM    444  C3S CER     1     -13.911  28.868  18.611  1.00  0.00     0.165 C 
ATOM    445  C3S CER     1       5.988 -33.150  18.576  1.00  0.00     0.165 C 
ATOM    446  C3S CER     1     -26.172 -21.785  18.624  1.00  0.00     0.165 C 
ATOM    447  C3S CER     1     -10.108 -33.059  18.604  1.00  0.00     0.165 C 
ATOM    448  C3S CER     1      24.312 -25.234  18.596  1.00  0.00     0.165 C 
ATOM    449  C3S CER     1      31.468  19.492  18.601  1.00  0.00     0.165 C 
ATOM    450  C3S CER     1      -0.629  37.321  18.593  1.00  0.00     0.165 C 
ATOM    451  C3S CER     1      -3.333 -39.914  18.606  1.00  0.00     0.165 C 
ATOM    452  C3S CER     1     -36.204 -15.848  18.594  1.00  0.00     0.165 C 
ATOM    453  C3S CER     1      32.468 -25.666  18.600  1.00  0.00     0.165 C 
ATOM    454  C3S CER     1      27.328  35.223  18.922  1.00  0.00     0.180 C 
ATOM    455  C3S CER     1     -29.881  33.615  18.607  1.00  0.00     0.165 C 
ATOM    456  C3S CER     1     -43.978  -0.081  18.597  1.00  0.00     0.165 C 
ATOM    457  C3S CER     1      46.505   7.918  18.597  1.00  0.00     0.165 C 
ATOM    458  C3S CER     1      33.962 -33.367  18.908  1.00  0.00     0.173 C 
ATOM    459  C3S CER     1     -37.320  30.466  18.612  1.00  0.00     0.165 C 
ATOM    460  C3S CER     1     -17.370  44.678  18.600  1.00  0.00     0.165 C 
ATOM    461  C3S CER     1      -8.787  47.944  18.532  1.00  0.00     0.165 C 
ATOM    462  C3S CER     1       9.911  48.769  18.587  1.00  0.00     0.165 C 
ATOM    463  C3S CER     1     -30.638 -42.050  18.684  1.00  0.00     0.173 C 
ATOM    464  C3S CER     1      40.862 -29.943  18.587  1.00  0.00     0.165 C 
ATOM    465  C3S CER     1     -24.133 -46.255  18.611  1.00  0.00     0.165 C 
ATOM    466  C3S CER     1       4.656 -53.095  18.569  1.00  0.00     0.165 C 
ATOM    467  C3S CER     1      21.902 -47.157  18.606  1.00  0.00     0.165 C 
ATOM    468  C3S CER     1      27.676  45.894  18.578  1.00  0.00     0.165 C 
ATOM    469  C3S CER     1      34.462  38.791  18.608  1.00  0.00     0.165 C 
ATOM    470  C3S CER     1     -48.468  18.769  18.585  1.00  0.00     0.165 C 
ATOM    471  C3S CER     1     -36.256  40.012  18.590  1.00  0.00     0.165 C 
ATOM    472  C3S CER     1     -53.089  -8.621  18.597  1.00  0.00     0.165 C 
ATOM    473  C3S CER     1      30.761 -45.513  18.559  1.00  0.00     0.165 C 
ATOM    474  C3S CER     1     -15.772 -51.340  18.688  1.00  0.00     0.165 C 
ATOM    475  C3S CER     1     -47.299  27.632  18.630  1.00  0.00     0.165 C 
ATOM    476  C3S CER     1      19.512  54.730  18.695  1.00  0.00     0.165 C 
ATOM    477  C3S CER     1     -25.532  53.011  18.583  1.00  0.00     0.165 C 
ATOM    478  C3S CER     1      51.285 -27.105  18.540  1.00  0.00     0.165 C 
ATOM    479  C3S CER     1     -40.381 -44.641  18.749  1.00  0.00     0.165 C 
ATOM    480  C3S CER     1     -31.483 -49.775  18.611  1.00  0.00     0.165 C 
ATOM    481  C3S CER     1      36.699  47.859  18.586  1.00  0.00     0.165 C 
ATOM    482  C3S CER     1      53.343  35.095  19.130  1.00  0.00     0.180 C 
ATOM    483  C3S CER     1      39.793 -50.841  18.579  1.00  0.00     0.165 C 
ATOM    484  C3S CER     1      48.873 -47.568  18.556  1.00  0.00     0.145 C 
ATOM    485  C3S CER     1     -53.742  44.552  18.575  1.00  0.00     0.165 C 
ATOM    486  C3S CER     1     -52.271 -54.186  18.465  1.00  0.00     0.165 C 
ATOM    487  O3  CER     1       0.932  -1.572  19.621  1.00  0.00    -0.390 OA
ATOM    488  O3  CER     1      -8.454   5.067  19.642  1.00  0.00    -0.390 OA
ATOM    489  O3  CER     1       8.337  -3.630  19.628  1.00  0.00    -0.390 OA
ATOM    490  O3  CER     1      -7.353  10.425  19.679  1.00  0.00    -0.390 OA
ATOM    491  O3  CER     1      10.403  12.392  19.751  1.00  0.00    -0.390 OA
ATOM    492  O3  CER     1     -16.534   7.433  19.624  1.00  0.00    -0.390 OA
ATOM    493  O3  CER     1      -6.427  22.346  20.027  1.00  0.00    -0.390 OA
ATOM    494  O3  CER     1      20.292  18.328  19.556  1.00  0.00    -0.390 OA
ATOM    495  O3  CER     1     -23.952   5.278  19.589  1.00  0.00    -0.390 OA
ATOM    496  O3  CER     1      -8.673 -25.938  19.617  1.00  0.00    -0.390 OA
ATOM    497  O3  CER     1      -5.122  28.957  19.637  1.00  0.00    -0.390 OA
ATOM    498  O3  CER     1     -14.020  27.831  19.596  1.00  0.00    -0.390 OA
ATOM    499  O3  CER     1       5.273 -32.427  19.575  1.00  0.00    -0.390 OA
ATOM    500  O3  CER     1     -26.030 -20.762  19.600  1.00  0.00    -0.390 OA
ATOM    501  O3  CER     1      -9.956 -32.066  19.614  1.00  0.00    -0.390 OA
ATOM    502  O3  CER     1      23.821 -24.319  19.568  1.00  0.00    -0.390 OA
ATOM    503  O3  CER     1      32.350  19.022  19.611  1.00  0.00    -0.390 OA
ATOM    504  O3  CER     1       0.191  36.721  19.591  1.00  0.00    -0.390 OA
ATOM    505  O3  CER     1      -3.212 -40.902  19.615  1.00  0.00    -0.390 OA
ATOM    506  O3  CER     1     -35.420 -15.231  19.619  1.00  0.00    -0.390 OA
ATOM    507  O3  CER     1      32.718 -26.640  19.607  1.00  0.00    -0.390 OA
ATOM    508  O3  CER     1      27.806  36.130  19.881  1.00  0.00    -0.390 OA
ATOM    509  O3  CER     1     -30.892  33.418  19.619  1.00  0.00    -0.390 OA
ATOM    510  O3  CER     1     -43.327  -0.864  19.590  1.00  0.00    -0.390 OA
ATOM    511  O3  CER     1      46.199   8.892  19.591  1.00  0.00    -0.390 OA
ATOM    512  O3  CER     1      34.589 -32.823  20.015  1.00  0.00    -0.389 OA
ATOM    513  O3  CER     1     -37.061  31.410  19.655  1.00  0.00    -0.390 OA
ATOM    514  O3  CER     1     -16.476  44.165  19.587  1.00  0.00    -0.390 OA
ATOM    515  O3  CER     1      -8.498  47.031  19.607  1.00  0.00    -0.390 OA
ATOM    516  O3  CER     1       9.178  48.100  19.606  1.00  0.00    -0.390 OA
ATOM    517  O3  CER     1     -30.877 -42.859  19.809  1.00  0.00    -0.389 OA
ATOM    518  O3  CER     1      40.012 -30.478  19.585  1.00  0.00    -0.390 OA
ATOM    519  O3  CER     1     -25.044 -46.662  19.635  1.00  0.00    -0.390 OA
ATOM    520  O3  CER     1       5.604 -53.432  19.565  1.00  0.00    -0.390 OA
ATOM    521  O3  CER     1      20.941 -47.437  19.621  1.00  0.00    -0.390 OA
ATOM    522  O3  CER     1      27.486  46.808  19.656  1.00  0.00    -0.390 OA
ATOM    523  O3  CER     1      33.878  37.998  19.637  1.00  0.00    -0.390 OA
ATOM    524  O3  CER     1     -47.537  19.165  19.582  1.00  0.00    -0.390 OA
ATOM    525  O3  CER     1     -35.689  40.843  19.608  1.00  0.00    -0.390 OA
ATOM    526  O3  CER     1     -52.097  -8.704  19.619  1.00  0.00    -0.390 OA
ATOM    527  O3  CER     1      31.001 -46.114  19.786  1.00  0.00    -0.390 OA
ATOM    528  O3  CER     1     -16.330 -50.919  19.934  1.00  0.00    -0.390 OA
ATOM    529  O3  CER     1     -46.487  27.643  19.806  1.00  0.00    -0.390 OA
ATOM    530  O3  CER     1      18.515  54.436  19.695  1.00  0.00    -0.390 OA
ATOM    531  O3  CER     1     -26.227  53.726  19.589  1.00  0.00    -0.390 OA
ATOM    532  O3  CER     1      51.375 -27.755  19.839  1.00  0.00    -0.390 OA
ATOM    533  O3  CER     1     -40.775 -45.556  19.761  1.00  0.00    -0.390 OA
ATOM    534  O3  CER     1     -30.757 -49.056  19.612  1.00  0.00    -0.390 OA
ATOM    535  O3  CER     1      36.128  47.058  19.610  1.00  0.00    -0.390 OA
ATOM    536  O3  CER     1      53.671  34.821  20.502  1.00  0.00    -0.390 OA
ATOM    537  O3  CER     1      39.614 -51.806  19.596  1.00  0.00    -0.390 OA
ATOM    538  O3  CER     1      49.528 -48.219  19.612  1.00  0.00    -0.391 OA
ATOM    539  O3  CER     1     -54.121  43.608  19.560  1.00  0.00    -0.390 OA
ATOM    540  O3  CER     1     -52.441 -55.316  19.264  1.00  0.00    -0.390 OA
ATOM    541  C4F CER     1      -0.937   4.828  15.380  1.00  0.00     0.000 C 
ATOM    542  C4F CER     1     -12.981   0.245  15.386  1.00  0.00     0.000 C 
ATOM    543  C4F CER     1       9.787 -10.087  15.383  1.00  0.00     0.000 C 
ATOM    544  C4F CER     1      -6.827  16.942  15.469  1.00  0.00     0.000 C 
ATOM    545  C4F CER     1      10.700  18.509  15.378  1.00  0.00     0.000 C 
ATOM    546  C4F CER     1     -15.870  14.027  15.379  1.00  0.00     0.000 C 
ATOM    547  C4F CER     1      -1.485  18.540  15.354  1.00  0.00     0.000 C 
ATOM    548  C4F CER     1      15.533  13.940  15.417  1.00  0.00     0.000 C 
ATOM    549  C4F CER     1     -28.308  10.327  15.377  1.00  0.00     0.000 C 
ATOM    550  C4F CER     1      -9.721 -19.576  15.316  1.00  0.00     0.000 C 
ATOM    551  C4F CER     1       1.265  28.395  15.362  1.00  0.00     0.000 C 
ATOM    552  C4F CER     1      -9.629  32.853  15.381  1.00  0.00     0.000 C 
ATOM    553  C4F CER     1       6.609 -38.811  15.395  1.00  0.00     0.000 C 
ATOM    554  C4F CER     1     -30.526 -25.672  15.373  1.00  0.00     0.000 C 
ATOM    555  C4F CER     1     -14.404 -37.014  15.380  1.00  0.00     0.000 C 
ATOM    556  C4F CER     1      23.097 -30.939  15.378  1.00  0.00     0.000 C 
ATOM    557  C4F CER     1      29.271  24.864  15.400  1.00  0.00     0.000 C 
ATOM    558  C4F CER     1      -1.998  42.996  15.379  1.00  0.00     0.000 C 
ATOM    559  C4F CER     1      -0.280 -34.950  15.393  1.00  0.00     0.000 C 
ATOM    560  C4F CER     1     -42.034 -15.865  15.371  1.00  0.00     0.000 C 
ATOM    561  C4F CER     1      34.831 -20.329  15.378  1.00  0.00     0.000 C 
ATOM    562  C4F CER     1      21.361  33.497  15.364  1.00  0.00     0.000 C 
ATOM    563  C4F CER     1     -24.822  30.775  15.387  1.00  0.00     0.000 C 
ATOM    564  C4F CER     1     -44.074   5.760  15.383  1.00  0.00     0.000 C 
ATOM    565  C4F CER     1      44.262   2.545  15.387  1.00  0.00     0.000 C 
ATOM    566  C4F CER     1      28.855 -36.896  15.332  1.00  0.00     0.000 C 
ATOM    567  C4F CER     1     -41.820  26.856  15.362  1.00  0.00     0.000 C 
ATOM    568  C4F CER     1     -18.776  50.409  15.386  1.00  0.00     0.000 C 
ATOM    569  C4F CER     1      -7.026  53.513  15.385  1.00  0.00     0.000 C 
ATOM    570  C4F CER     1      15.689  49.310  15.385  1.00  0.00     0.000 C 
ATOM    571  C4F CER     1     -28.636 -36.702  15.365  1.00  0.00     0.000 C 
ATOM    572  C4F CER     1      46.623 -30.884  15.382  1.00  0.00     0.000 C 
ATOM    573  C4F CER     1     -18.636 -47.343  15.383  1.00  0.00     0.000 C 
ATOM    574  C4F CER     1       1.471 -48.221  15.382  1.00  0.00     0.000 C 
ATOM    575  C4F CER     1      27.356 -49.226  15.382  1.00  0.00     0.000 C 
ATOM    576  C4F CER     1      25.170  40.879  15.392  1.00  0.00     0.000 C 
ATOM    577  C4F CER     1      40.012  40.557  15.368  1.00  0.00     0.000 C 
ATOM    578  C4F CER     1     -54.027  20.529  15.380  1.00  0.00     0.000 C 
ATOM    579  C4F CER     1     -41.891  38.463  15.388  1.00  0.00     0.000 C 
ATOM    580  C4F CER     1     -57.297  -4.570  15.376  1.00  0.00     0.000 C 
ATOM    581  C4F CER     1      33.192 -40.493  15.416  1.00  0.00     0.000 C 
ATOM    582  C4F CER     1     -15.339 -56.588  15.355  1.00  0.00     0.000 C 
ATOM    583  C4F CER     1     -51.788  31.052  15.427  1.00  0.00     0.000 C 
ATOM    584  C4F CER     1      24.646  51.407  15.373  1.00  0.00     0.000 C 
ATOM    585  C4F CER     1     -24.550  47.288  15.400  1.00  0.00     0.000 C 
ATOM    586  C4F CER     1      53.916 -22.443  15.380  1.00  0.00     0.000 C 
ATOM    587  C4F CER     1     -35.296 -41.877  15.378  1.00  0.00     0.000 C 
ATOM    588  C4F CER     1     -36.909 -50.429  15.308  1.00  0.00     0.000 C 
ATOM    589  C4F CER     1      42.311  49.840  15.482  1.00  0.00     0.000 C 
ATOM    590  C4F CER     1      47.995  36.517  15.355  1.00  0.00     0.000 C 
ATOM    591  C4F CER     1      44.059 -46.882  15.370  1.00  0.00     0.000 C 
ATOM    592  C4F CER     1      48.457 -41.403  15.140  1.00  0.00     0.000 C 
ATOM    593  C4F CER     1     -48.616  47.315  15.365  1.00  0.00     0.000 C 
ATOM    594  C4F CER     1     -47.673 -50.687  15.390  1.00  0.00     0.000 C 
ATOM    595  C4S CER     1       0.841  -1.165  17.279  1.00  0.00     0.003 C 
ATOM    596  C4S CER     1      -8.763   4.826  17.289  1.00  0.00     0.003 C 
ATOM    597  C4S CER     1       8.354  -4.020  17.280  1.00  0.00     0.003 C 
ATOM    598  C4S CER     1      -7.054  10.751  17.231  1.00  0.00     0.003 C 
ATOM    599  C4S CER     1      10.876  12.718  17.018  1.00  0.00     0.003 C 
ATOM    600  C4S CER     1     -16.490   7.811  17.288  1.00  0.00     0.003 C 
ATOM    601  C4S CER     1      -7.097  22.177  16.781  1.00  0.00    -0.001 C 
ATOM    602  C4S CER     1      19.974  18.070  17.262  1.00  0.00     0.003 C 
ATOM    603  C4S CER     1     -24.187   5.623  17.271  1.00  0.00     0.003 C 
ATOM    604  C4S CER     1      -8.724 -25.563  17.279  1.00  0.00     0.003 C 
ATOM    605  C4S CER     1      -4.741  28.849  17.276  1.00  0.00     0.003 C 
ATOM    606  C4S CER     1     -13.751  28.182  17.289  1.00  0.00     0.003 C 
ATOM    607  C4S CER     1       5.368 -32.772  17.247  1.00  0.00     0.003 C 
ATOM    608  C4S CER     1     -26.321 -21.079  17.323  1.00  0.00     0.003 C 
ATOM    609  C4S CER     1     -10.244 -32.343  17.279  1.00  0.00     0.003 C 
ATOM    610  C4S CER     1      23.783 -24.741  17.285  1.00  0.00     0.003 C 
ATOM    611  C4S CER     1      32.190  19.385  17.276  1.00  0.00     0.003 C 
ATOM    612  C4S CER     1       0.064  37.096  17.271  1.00  0.00     0.003 C 
ATOM    613  C4S CER     1      -3.007 -40.557  17.276  1.00  0.00     0.003 C 
ATOM    614  C4S CER     1     -35.833 -15.213  17.272  1.00  0.00     0.003 C 
ATOM    615  C4S CER     1      32.888 -26.265  17.278  1.00  0.00     0.003 C 
ATOM    616  C4S CER     1      27.552  36.034  17.434  1.00  0.00    -0.004 C 
ATOM    617  C4S CER     1     -30.508  33.276  17.278  1.00  0.00     0.003 C 
ATOM    618  C4S CER     1     -43.347  -0.451  17.272  1.00  0.00     0.003 C 
ATOM    619  C4S CER     1      46.075   8.507  17.272  1.00  0.00     0.003 C 
ATOM    620  C4S CER     1      34.500 -32.655  17.526  1.00  0.00     0.003 C 
ATOM    621  C4S CER     1     -37.408  31.199  17.287  1.00  0.00     0.003 C 
ATOM    622  C4S CER     1     -16.739  44.473  17.175  1.00  0.00     0.003 C 
ATOM    623  C4S CER     1      -8.390  47.242  17.194  1.00  0.00     0.003 C 
ATOM    624  C4S CER     1       9.584  48.108  17.269  1.00  0.00     0.003 C 
ATOM    625  C4S CER     1     -30.922 -42.829  17.340  1.00  0.00     0.003 C 
ATOM    626  C4S CER     1      40.387 -30.512  17.274  1.00  0.00     0.003 C 
ATOM    627  C4S CER     1     -24.651 -46.760  17.290  1.00  0.00     0.003 C 
ATOM    628  C4S CER     1       5.386 -53.081  17.255  1.00  0.00     0.003 C 
ATOM    629  C4S CER     1      21.321 -47.608  17.280  1.00  0.00     0.003 C 
ATOM    630  C4S CER     1      27.272  46.512  17.219  1.00  0.00     0.003 C 
ATOM    631  C4S CER     1      34.285  38.080  17.283  1.00  0.00     0.003 C 
ATOM    632  C4S CER     1     -47.917  19.249  17.271  1.00  0.00     0.003 C 
ATOM    633  C4S CER     1     -36.047  40.705  17.271  1.00  0.00     0.003 C 
ATOM    634  C4S CER     1     -52.385  -8.439  17.277  1.00  0.00     0.003 C 
ATOM    635  C4S CER     1      31.179 -46.230  17.255  1.00  0.00     0.003 C 
ATOM    636  C4S CER     1     -16.242 -50.929  17.258  1.00  0.00     0.003 C 
ATOM    637  C4S CER     1     -46.603  27.919  17.289  1.00  0.00     0.003 C 
ATOM    638  C4S CER     1      18.949  54.202  17.303  1.00  0.00     0.003 C 
ATOM    639  C4S CER     1     -26.195  53.308  17.264  1.00  0.00     0.003 C 
ATOM    640  C4S CER     1      51.703 -27.794  17.135  1.00  0.00     0.003 C 
ATOM    641  C4S CER     1     -40.390 -45.440  17.594  1.00  0.00     0.003 C 
ATOM    642  C4S CER     1     -31.157 -49.153  17.283  1.00  0.00     0.003 C 
ATOM    643  C4S CER     1      36.543  47.146  17.268  1.00  0.00     0.003 C 
ATOM    644  C4S CER     1      54.528  34.910  17.546  1.00  0.00    -0.018 C 
ATOM    645  C4S CER     1      39.932 -51.566  17.262  1.00  0.00     0.003 C 
ATOM    646  C4S CER     1      49.366 -47.929  17.243  1.00  0.00     0.001 C 
ATOM    647  C4S CER     1     -53.785  43.827  17.258  1.00  0.00     0.003 C 
ATOM    648  C4S CER     1     -52.212 -54.893  17.166  1.00  0.00     0.003 C 
ATOM    649  O4  CER     1      -4.881   7.145  24.798  1.00  0.00    -0.390 OA
ATOM    650  O4  CER     1     -13.137  -4.276  24.760  1.00  0.00    -0.390 OA
ATOM    651  O4  CER     1      13.512 -12.756  24.716  1.00  0.00    -0.390 OA
ATOM    652  O4  CER     1      -9.723  20.483  24.737  1.00  0.00    -0.390 OA
ATOM    653  O4  CER     1       7.461  21.682  24.747  1.00  0.00    -0.390 OA
ATOM    654  O4  CER     1     -18.486  17.782  24.709  1.00  0.00    -0.390 OA
ATOM    655  O4  CER     1       2.926  19.690  24.754  1.00  0.00    -0.390 OA
ATOM    656  O4  CER     1      14.974   9.312  24.771  1.00  0.00    -0.390 OA
ATOM    657  O4  CER     1     -32.810  10.893  24.759  1.00  0.00    -0.390 OA
ATOM    658  O4  CER     1     -13.134 -16.455  24.760  1.00  0.00    -0.390 OA
ATOM    659  O4  CER     1       5.179  31.107  24.755  1.00  0.00    -0.390 OA
ATOM    660  O4  CER     1      -9.563  37.351  24.925  1.00  0.00    -0.390 OA
ATOM    661  O4  CER     1      10.232 -41.638  24.812  1.00  0.00    -0.390 OA
ATOM    662  O4  CER     1     -30.614 -29.998  24.785  1.00  0.00    -0.390 OA
ATOM    663  O4  CER     1     -14.399 -41.580  24.753  1.00  0.00    -0.390 OA
ATOM    664  O4  CER     1      25.721 -34.631  24.738  1.00  0.00    -0.390 OA
ATOM    665  O4  CER     1      24.989  26.484  24.755  1.00  0.00    -0.390 OA
ATOM    666  O4  CER     1      -6.002  45.162  24.789  1.00  0.00    -0.390 OA
ATOM    667  O4  CER     1      -1.610 -30.532  24.755  1.00  0.00    -0.390 OA
ATOM    668  O4  CER     1     -45.099 -19.248  24.751  1.00  0.00    -0.390 OA
ATOM    669  O4  CER     1      33.023 -16.166  24.754  1.00  0.00    -0.390 OA
ATOM    670  O4  CER     1      19.426  29.426  24.791  1.00  0.00    -0.390 OA
ATOM    671  O4  CER     1     -20.457  32.135  24.758  1.00  0.00    -0.390 OA
ATOM    672  O4  CER     1     -47.485   8.756  24.798  1.00  0.00    -0.390 OA
ATOM    673  O4  CER     1      46.153  -1.600  24.712  1.00  0.00    -0.390 OA
ATOM    674  O4  CER     1      27.741 -41.563  24.744  1.00  0.00    -0.390 OA
ATOM    675  O4  CER     1     -42.278  22.323  24.764  1.00  0.00    -0.390 OA
ATOM    676  O4  CER     1     -22.701  52.664  24.781  1.00  0.00    -0.390 OA
ATOM    677  O4  CER     1      -9.373  57.106  24.868  1.00  0.00    -0.390 OA
ATOM    678  O4  CER     1      18.458  52.909  24.763  1.00  0.00    -0.390 OA
ATOM    679  O4  CER     1     -30.263 -32.403  24.831  1.00  0.00    -0.390 OA
ATOM    680  O4  CER     1      50.175 -28.019  24.802  1.00  0.00    -0.390 OA
ATOM    681  O4  CER     1     -14.651 -45.188  24.752  1.00  0.00    -0.390 OA
ATOM    682  O4  CER     1      -3.021 -47.516  24.815  1.00  0.00    -0.390 OA
ATOM    683  O4  CER     1      31.429 -47.174  24.812  1.00  0.00    -0.390 OA
ATOM    684  O4  CER     1      26.916  36.564  24.741  1.00  0.00    -0.390 OA
ATOM    685  O4  CER     1      41.958  44.655  24.771  1.00  0.00    -0.390 OA
ATOM    686  O4  CER     1     -58.014  18.286  24.628  1.00  0.00    -0.390 OA
ATOM    687  O4  CER     1     -43.942  34.421  24.790  1.00  0.00    -0.390 OA
ATOM    688  O4  CER     1     -62.197  -4.465  24.666  1.00  0.00    -0.390 OA
ATOM    689  O4  CER     1      31.792 -36.311  25.321  1.00  0.00    -0.393 OA
ATOM    690  O4  CER     1     -12.393 -60.176  24.328  1.00  0.00    -0.390 OA
ATOM    691  O4  CER     1     -55.922  30.829  24.796  1.00  0.00    -0.390 OA
ATOM    692  O4  CER     1      29.022  52.672  24.757  1.00  0.00    -0.390 OA
ATOM    693  O4  CER     1     -20.743  44.808  24.788  1.00  0.00    -0.390 OA
ATOM    694  O4  CER     1      52.337 -18.057  24.725  1.00  0.00    -0.390 OA
ATOM    695  O4  CER     1     -34.381 -37.405  24.778  1.00  0.00    -0.390 OA
ATOM    696  O4  CER     1     -40.559 -53.538  24.263  1.00  0.00    -0.390 OA
ATOM    697  O4  CER     1      43.979  54.008  24.746  1.00  0.00    -0.390 OA
ATOM    698  O4  CER     1      43.714  35.070  24.741  1.00  0.00    -0.390 OA
ATOM    699  O4  CER     1      43.891 -42.415  24.865  1.00  0.00    -0.390 OA
ATOM    700  O4  CER     1      44.916 -38.543  24.709  1.00  0.00    -0.390 OA
ATOM    701  O4  CER     1     -47.535  51.744  24.774  1.00  0.00    -0.390 OA
ATOM    702  O4  CER     1     -47.348 -46.115  24.786  1.00  0.00    -0.390 OA
ATOM    703  C5F CER     1      -0.946   4.406  13.915  1.00  0.00     0.000 C 
ATOM    704  C5F CER     1     -12.536   0.443  13.946  1.00  0.00     0.000 C 
ATOM    705  C5F CER     1       9.832  -9.675  13.930  1.00  0.00     0.000 C 
ATOM    706  C5F CER     1      -7.064  16.504  14.082  1.00  0.00     0.000 C 
ATOM    707  C5F CER     1      10.606  18.089  13.920  1.00  0.00     0.000 C 
ATOM    708  C5F CER     1     -16.037  13.643  13.913  1.00  0.00     0.000 C 
ATOM    709  C5F CER     1      -1.806  18.850  13.903  1.00  0.00     0.000 C 
ATOM    710  C5F CER     1      15.845  14.006  13.957  1.00  0.00     0.000 C 
ATOM    711  C5F CER     1     -28.135   9.939  13.913  1.00  0.00     0.000 C 
ATOM    712  C5F CER     1      -9.731 -19.902  13.851  1.00  0.00     0.000 C 
ATOM    713  C5F CER     1       0.986  28.561  13.887  1.00  0.00     0.000 C 
ATOM    714  C5F CER     1      -9.990  32.632  13.915  1.00  0.00     0.000 C 
ATOM    715  C5F CER     1       6.746 -38.370  13.961  1.00  0.00     0.000 C 
ATOM    716  C5F CER     1     -30.162 -25.465  13.910  1.00  0.00     0.000 C 
ATOM    717  C5F CER     1     -14.042 -36.802  13.914  1.00  0.00     0.000 C 
ATOM    718  C5F CER     1      23.267 -30.554  13.913  1.00  0.00     0.000 C 
ATOM    719  C5F CER     1      29.354  24.472  13.931  1.00  0.00     0.000 C 
ATOM    720  C5F CER     1      -1.994  42.557  13.916  1.00  0.00     0.000 C 
ATOM    721  C5F CER     1      -0.588 -35.236  13.932  1.00  0.00     0.000 C 
ATOM    722  C5F CER     1     -41.584 -15.969  13.912  1.00  0.00     0.000 C 
ATOM    723  C5F CER     1      34.585 -20.674  13.913  1.00  0.00     0.000 C 
ATOM    724  C5F CER     1      21.788  33.549  13.905  1.00  0.00     0.000 C 
ATOM    725  C5F CER     1     -25.126  31.077  13.921  1.00  0.00     0.000 C 
ATOM    726  C5F CER     1     -44.155   5.348  13.919  1.00  0.00     0.000 C 
ATOM    727  C5F CER     1      44.500   2.875  13.918  1.00  0.00     0.000 C 
ATOM    728  C5F CER     1      29.332 -36.808  13.898  1.00  0.00     0.000 C 
ATOM    729  C5F CER     1     -41.207  27.037  13.960  1.00  0.00     0.000 C 
ATOM    730  C5F CER     1     -18.992  49.870  13.974  1.00  0.00     0.000 C 
ATOM    731  C5F CER     1      -7.219  53.130  13.922  1.00  0.00     0.000 C 
ATOM    732  C5F CER     1      15.286  49.366  13.915  1.00  0.00     0.000 C 
ATOM    733  C5F CER     1     -28.956 -37.119  13.932  1.00  0.00     0.000 C 
ATOM    734  C5F CER     1      46.231 -30.735  13.915  1.00  0.00     0.000 C 
ATOM    735  C5F CER     1     -19.030 -47.274  13.801  1.00  0.00     0.000 C 
ATOM    736  C5F CER     1       1.623 -48.612  13.915  1.00  0.00     0.000 C 
ATOM    737  C5F CER     1      27.002 -48.998  13.916  1.00  0.00     0.000 C 
ATOM    738  C5F CER     1      25.437  41.166  13.918  1.00  0.00     0.000 C 
ATOM    739  C5F CER     1      39.603  40.516  13.907  1.00  0.00     0.000 C 
ATOM    740  C5F CER     1     -53.665  20.324  13.916  1.00  0.00     0.000 C 
ATOM    741  C5F CER     1     -41.465  38.459  13.934  1.00  0.00     0.000 C 
ATOM    742  C5F CER     1     -57.058  -4.910  13.912  1.00  0.00     0.000 C 
ATOM    743  C5F CER     1      32.690 -40.882  14.039  1.00  0.00     0.000 C 
ATOM    744  C5F CER     1     -15.031 -56.054  13.961  1.00  0.00     0.000 C 
ATOM    745  C5F CER     1     -51.437  30.526  14.063  1.00  0.00     0.000 C 
ATOM    746  C5F CER     1      24.309  51.700  13.911  1.00  0.00     0.000 C 
ATOM    747  C5F CER     1     -24.467  47.724  13.951  1.00  0.00     0.000 C 
ATOM    748  C5F CER     1      53.677 -22.743  13.906  1.00  0.00     0.000 C 
ATOM    749  C5F CER     1     -35.713 -41.997  13.922  1.00  0.00     0.000 C 
ATOM    750  C5F CER     1     -36.512 -50.546  13.941  1.00  0.00     0.000 C 
ATOM    751  C5F CER     1      42.092  49.946  14.022  1.00  0.00     0.000 C 
ATOM    752  C5F CER     1      48.340  36.242  13.903  1.00  0.00     0.000 C 
ATOM    753  C5F CER     1      43.702 -47.099  13.908  1.00  0.00     0.000 C 
ATOM    754  C5F CER     1      48.307 -41.954  13.783  1.00  0.00     0.000 C 
ATOM    755  C5F CER     1     -49.028  47.213  13.919  1.00  0.00     0.000 C 
ATOM    756  C5F CER     1     -48.074 -50.865  13.935  1.00  0.00     0.000 C 
ATOM    757  C5S CER     1       2.057  -0.702  16.871  1.00  0.00    -0.028 C 
ATOM    758  C5S CER     1      -9.779   5.639  16.882  1.00  0.00    -0.028 C 
ATOM    759  C5S CER     1       7.116  -4.406  16.868  1.00  0.00    -0.028 C 
ATOM    760  C5S CER     1      -5.809  10.970  16.716  1.00  0.00    -0.028 C 
ATOM    761  C5S CER     1      12.140  12.733  16.472  1.00  0.00    -0.028 C 
ATOM    762  C5S CER     1     -15.188   7.782  16.892  1.00  0.00    -0.028 C 
ATOM    763  C5S CER     1      -7.790  20.836  16.259  1.00  0.00    -0.005 C 
ATOM    764  C5S CER     1      19.026  18.960  16.858  1.00  0.00    -0.028 C 
ATOM    765  C5S CER     1     -23.270   6.541  16.859  1.00  0.00    -0.028 C 
ATOM    766  C5S CER     1      -7.457 -25.278  16.873  1.00  0.00    -0.028 C 
ATOM    767  C5S CER     1      -4.751  27.552  16.870  1.00  0.00    -0.028 C 
ATOM    768  C5S CER     1     -12.691  27.416  16.905  1.00  0.00    -0.028 C 
ATOM    769  C5S CER     1       4.174 -33.172  16.758  1.00  0.00    -0.028 C 
ATOM    770  C5S CER     1     -27.354 -20.279  16.936  1.00  0.00    -0.028 C 
ATOM    771  C5S CER     1     -11.269 -31.552  16.864  1.00  0.00    -0.028 C 
ATOM    772  C5S CER     1      22.482 -24.693  16.892  1.00  0.00    -0.028 C 
ATOM    773  C5S CER     1      33.285  20.080  16.859  1.00  0.00    -0.028 C 
ATOM    774  C5S CER     1       1.256  37.606  16.857  1.00  0.00    -0.028 C 
ATOM    775  C5S CER     1      -1.799 -41.020  16.857  1.00  0.00    -0.028 C 
ATOM    776  C5S CER     1     -36.054 -13.933  16.862  1.00  0.00    -0.028 C 
ATOM    777  C5S CER     1      34.144 -26.585  16.866  1.00  0.00    -0.028 C 
ATOM    778  C5S CER     1      26.907  37.103  16.801  1.00  0.00    -0.027 C 
ATOM    779  C5S CER     1     -30.952  32.058  16.869  1.00  0.00    -0.028 C 
ATOM    780  C5S CER     1     -42.071  -0.212  16.861  1.00  0.00    -0.028 C 
ATOM    781  C5S CER     1      44.809   8.794  16.860  1.00  0.00    -0.028 C 
ATOM    782  C5S CER     1      33.636 -31.937  16.782  1.00  0.00    -0.028 C 
ATOM    783  C5S CER     1     -38.374  32.063  16.868  1.00  0.00    -0.028 C 
ATOM    784  C5S CER     1     -15.526  44.809  16.651  1.00  0.00    -0.028 C 
ATOM    785  C5S CER     1      -7.185  47.240  16.582  1.00  0.00    -0.028 C 
ATOM    786  C5S CER     1       9.919  46.856  16.859  1.00  0.00    -0.028 C 
ATOM    787  C5S CER     1     -29.803 -42.920  16.757  1.00  0.00    -0.028 C 
ATOM    788  C5S CER     1      40.405 -31.814  16.872  1.00  0.00    -0.028 C 
ATOM    789  C5S CER     1     -24.741 -48.053  16.880  1.00  0.00    -0.028 C 
ATOM    790  C5S CER     1       6.343 -52.205  16.853  1.00  0.00    -0.028 C 
ATOM    791  C5S CER     1      21.067 -48.879  16.868  1.00  0.00    -0.028 C 
ATOM    792  C5S CER     1      26.063  46.934  16.790  1.00  0.00    -0.028 C 
ATOM    793  C5S CER     1      34.886  36.934  16.866  1.00  0.00    -0.028 C 
ATOM    794  C5S CER     1     -47.755  20.535  16.858  1.00  0.00    -0.028 C 
ATOM    795  C5S CER     1     -36.592  41.882  16.863  1.00  0.00    -0.028 C 
ATOM    796  C5S CER     1     -51.657  -7.365  16.869  1.00  0.00    -0.028 C 
ATOM    797  C5S CER     1      32.424 -46.475  16.767  1.00  0.00    -0.028 C 
ATOM    798  C5S CER     1     -17.516 -51.049  16.854  1.00  0.00    -0.028 C 
ATOM    799  C5S CER     1     -45.956  29.046  16.887  1.00  0.00    -0.028 C 
ATOM    800  C5S CER     1      18.375  53.045  16.807  1.00  0.00    -0.028 C 
ATOM    801  C5S CER     1     -27.421  52.890  16.858  1.00  0.00    -0.028 C 
ATOM    802  C5S CER     1      52.953 -28.153  16.580  1.00  0.00    -0.028 C 
ATOM    803  C5S CER     1     -39.463 -46.237  17.143  1.00  0.00    -0.028 C 
ATOM    804  C5S CER     1     -31.468 -47.900  16.869  1.00  0.00    -0.028 C 
ATOM    805  C5S CER     1      37.165  46.007  16.865  1.00  0.00    -0.028 C 
ATOM    806  C5S CER     1      54.455  35.690  16.581  1.00  0.00    -0.014 C 
ATOM    807  C5S CER     1      40.958 -52.356  16.854  1.00  0.00    -0.028 C 
ATOM    808  C5S CER     1      50.579 -47.574  16.820  1.00  0.00    -0.028 C 
ATOM    809  C5S CER     1     -52.986  42.804  16.853  1.00  0.00    -0.028 C 
ATOM    810  C5S CER     1     -51.271 -55.804  16.792  1.00  0.00    -0.028 C 
ATOM    811  O5  CER     1      -5.571   6.065  22.246  1.00  0.00    -0.390 OA
ATOM    812  O5  CER     1     -11.831  -4.387  22.213  1.00  0.00    -0.390 OA
ATOM    813  O5  CER     1      14.332 -11.654  22.257  1.00  0.00    -0.390 OA
ATOM    814  O5  CER     1     -10.826  19.616  22.258  1.00  0.00    -0.390 OA
ATOM    815  O5  CER     1       6.472  20.710  22.213  1.00  0.00    -0.390 OA
ATOM    816  O5  CER     1     -19.636  16.981  22.216  1.00  0.00    -0.390 OA
ATOM    817  O5  CER     1       2.648  20.943  22.194  1.00  0.00    -0.390 OA
ATOM    818  O5  CER     1      16.296   9.152  22.268  1.00  0.00    -0.390 OA
ATOM    819  O5  CER     1     -33.028   9.556  22.227  1.00  0.00    -0.390 OA
ATOM    820  O5  CER     1     -14.037 -17.488  22.222  1.00  0.00    -0.390 OA
ATOM    821  O5  CER     1       4.305  32.199  22.251  1.00  0.00    -0.390 OA
ATOM    822  O5  CER     1     -10.526  37.429  22.586  1.00  0.00    -0.390 OA
ATOM    823  O5  CER     1      11.031 -40.513  22.275  1.00  0.00    -0.390 OA
ATOM    824  O5  CER     1     -29.276 -30.270  22.249  1.00  0.00    -0.390 OA
ATOM    825  O5  CER     1     -13.067 -41.615  22.246  1.00  0.00    -0.390 OA
ATOM    826  O5  CER     1      26.838 -33.915  22.225  1.00  0.00    -0.390 OA
ATOM    827  O5  CER     1      24.566  24.876  22.513  1.00  0.00    -0.390 OA
ATOM    828  O5  CER     1      -6.689  44.061  22.217  1.00  0.00    -0.390 OA
ATOM    829  O5  CER     1      -2.882 -30.887  22.251  1.00  0.00    -0.390 OA
ATOM    830  O5  CER     1     -44.220 -20.155  22.181  1.00  0.00    -0.390 OA
ATOM    831  O5  CER     1      31.795 -16.636  22.222  1.00  0.00    -0.390 OA
ATOM    832  O5  CER     1      20.255  28.882  22.226  1.00  0.00    -0.390 OA
ATOM    833  O5  CER     1     -20.825  33.414  22.235  1.00  0.00    -0.390 OA
ATOM    834  O5  CER     1     -48.412   7.823  22.246  1.00  0.00    -0.390 OA
ATOM    835  O5  CER     1      47.396  -1.070  22.196  1.00  0.00    -0.390 OA
ATOM    836  O5  CER     1      28.347 -41.780  21.993  1.00  0.00    -0.390 OA
ATOM    837  O5  CER     1     -40.973  22.130  22.212  1.00  0.00    -0.390 OA
ATOM    838  O5  CER     1     -23.246  51.974  22.187  1.00  0.00    -0.390 OA
ATOM    839  O5  CER     1     -10.676  56.077  21.990  1.00  0.00    -0.390 OA
ATOM    840  O5  CER     1      17.152  53.740  22.155  1.00  0.00    -0.390 OA
ATOM    841  O5  CER     1     -31.550 -32.576  22.254  1.00  0.00    -0.390 OA
ATOM    842  O5  CER     1      49.380 -27.012  22.236  1.00  0.00    -0.390 OA
ATOM    843  O5  CER     1     -15.396 -43.997  22.263  1.00  0.00    -0.390 OA
ATOM    844  O5  CER     1      -3.258 -48.874  22.316  1.00  0.00    -0.390 OA
ATOM    845  O5  CER     1      30.782 -46.007  22.368  1.00  0.00    -0.390 OA
ATOM    846  O5  CER     1      28.175  37.119  22.265  1.00  0.00    -0.390 OA
ATOM    847  O5  CER     1      40.657  45.291  22.252  1.00  0.00    -0.390 OA
ATOM    848  O5  CER     1     -57.015  16.992  22.193  1.00  0.00    -0.390 OA
ATOM    849  O5  CER     1     -42.824  33.761  22.220  1.00  0.00    -0.390 OA
ATOM    850  O5  CER     1     -62.147  -5.593  21.935  1.00  0.00    -0.390 OA
ATOM    851  O5  CER     1      30.100 -36.510  23.742  1.00  0.00    -0.253 OA
ATOM    852  O5  CER     1     -11.069 -58.564  22.192  1.00  0.00    -0.390 OA
ATOM    853  O5  CER     1     -56.229  29.689  21.594  1.00  0.00    -0.390 OA
ATOM    854  O5  CER     1      28.690  54.010  22.217  1.00  0.00    -0.390 OA
ATOM    855  O5  CER     1     -20.045  45.548  22.170  1.00  0.00    -0.390 OA
ATOM    856  O5  CER     1      51.056 -18.466  22.144  1.00  0.00    -0.390 OA
ATOM    857  O5  CER     1     -35.643 -37.094  22.242  1.00  0.00    -0.390 OA
ATOM    858  O5  CER     1     -38.883 -54.393  22.061  1.00  0.00    -0.390 OA
ATOM    859  O5  CER     1      43.491  54.342  21.889  1.00  0.00    -0.390 OA
ATOM    860  O5  CER     1      44.485  33.555  22.592  1.00  0.00    -0.390 OA
ATOM    861  O5  CER     1      42.630 -42.309  22.255  1.00  0.00    -0.390 OA
ATOM    862  O5  CER     1      43.986 -39.656  22.274  1.00  0.00    -0.390 OA
ATOM    863  O5  CER     1     -48.797  52.174  22.224  1.00  0.00    -0.390 OA
ATOM    864  O5  CER     1     -48.568 -45.974  22.222  1.00  0.00    -0.390 OA
ATOM    865  C6F CER     1      -0.009   5.179  12.990  1.00  0.00     0.000 C 
ATOM    866  C6F CER     1     -13.609   0.827  12.988  1.00  0.00     0.000 C 
ATOM    867  C6F CER     1       8.868 -10.383  13.013  1.00  0.00     0.000 C 
ATOM    868  C6F CER     1      -5.953  16.876  13.269  1.00  0.00     0.000 C 
ATOM    869  C6F CER     1      11.691  18.646  13.006  1.00  0.00     0.000 C 
ATOM    870  C6F CER     1     -14.878  14.007  12.991  1.00  0.00     0.000 C 
ATOM    871  C6F CER     1      -1.905  17.647  12.979  1.00  0.00     0.000 C 
ATOM    872  C6F CER     1      14.740  14.457  13.071  1.00  0.00     0.000 C 
ATOM    873  C6F CER     1     -27.608  11.033  12.989  1.00  0.00     0.000 C 
ATOM    874  C6F CER     1      -8.694 -19.181  12.988  1.00  0.00     0.000 C 
ATOM    875  C6F CER     1       1.333  27.383  12.988  1.00  0.00     0.000 C 
ATOM    876  C6F CER     1      -8.839  32.239  12.991  1.00  0.00     0.000 C 
ATOM    877  C6F CER     1       5.793 -38.978  13.031  1.00  0.00     0.000 C 
ATOM    878  C6F CER     1     -31.309 -25.065  12.988  1.00  0.00     0.000 C 
ATOM    879  C6F CER     1     -15.193 -36.412  12.989  1.00  0.00     0.000 C 
ATOM    880  C6F CER     1      22.104 -30.906  12.989  1.00  0.00     0.000 C 
ATOM    881  C6F CER     1      30.090  25.435  12.998  1.00  0.00     0.000 C 
ATOM    882  C6F CER     1      -1.105  43.358  12.977  1.00  0.00     0.000 C 
ATOM    883  C6F CER     1       0.616 -35.268  13.002  1.00  0.00     0.000 C 
ATOM    884  C6F CER     1     -42.126 -14.936  12.944  1.00  0.00     0.000 C 
ATOM    885  C6F CER     1      35.795 -20.568  12.990  1.00  0.00     0.000 C 
ATOM    886  C6F CER     1      20.918  34.398  12.985  1.00  0.00     0.000 C 
ATOM    887  C6F CER     1     -25.193  29.902  12.975  1.00  0.00     0.000 C 
ATOM    888  C6F CER     1     -43.105   5.957  12.997  1.00  0.00     0.000 C 
ATOM    889  C6F CER     1      43.292   2.734  12.991  1.00  0.00     0.000 C 
ATOM    890  C6F CER     1      28.328 -36.152  12.975  1.00  0.00     0.000 C 
ATOM    891  C6F CER     1     -42.039  27.673  12.920  1.00  0.00     0.000 C 
ATOM    892  C6F CER     1     -18.369  50.710  12.963  1.00  0.00     0.000 C 
ATOM    893  C6F CER     1      -6.035  53.412  12.998  1.00  0.00     0.000 C 
ATOM    894  C6F CER     1      15.974  48.364  12.991  1.00  0.00     0.000 C 
ATOM    895  C6F CER     1     -27.733 -37.027  13.027  1.00  0.00     0.000 C 
ATOM    896  C6F CER     1      46.642 -31.879  12.990  1.00  0.00     0.000 C 
ATOM    897  C6F CER     1     -19.341 -48.423  12.625  1.00  0.00     0.000 C 
ATOM    898  C6F CER     1       2.196 -47.540  12.991  1.00  0.00     0.000 C 
ATOM    899  C6F CER     1      27.171 -50.200  12.990  1.00  0.00     0.000 C 
ATOM    900  C6F CER     1      24.223  41.099  12.991  1.00  0.00     0.000 C 
ATOM    901  C6F CER     1      40.483  39.680  12.987  1.00  0.00     0.000 C 
ATOM    902  C6F CER     1     -53.904  21.510  12.992  1.00  0.00     0.000 C 
ATOM    903  C6F CER     1     -42.318  39.280  12.996  1.00  0.00     0.000 C 
ATOM    904  C6F CER     1     -56.744  -3.740  12.989  1.00  0.00     0.000 C 
ATOM    905  C6F CER     1      33.812 -40.995  13.160  1.00  0.00     0.000 C 
ATOM    906  C6F CER     1     -15.847 -56.623  12.914  1.00  0.00     0.000 C 
ATOM    907  C6F CER     1     -51.006  31.626  13.258  1.00  0.00     0.000 C 
ATOM    908  C6F CER     1      24.102  50.521  12.964  1.00  0.00     0.000 C 
ATOM    909  C6F CER     1     -25.342  46.929  13.035  1.00  0.00     0.000 C 
ATOM    910  C6F CER     1      54.894 -22.643  12.988  1.00  0.00     0.000 C 
ATOM    911  C6F CER     1     -34.678 -42.603  13.002  1.00  0.00     0.000 C 
ATOM    912  C6F CER     1     -36.713 -49.246  13.330  1.00  0.00     0.000 C 
ATOM    913  C6F CER     1      43.036  49.162  13.108  1.00  0.00     0.000 C 
ATOM    914  C6F CER     1      48.326  37.457  12.987  1.00  0.00     0.000 C 
ATOM    915  C6F CER     1      44.854 -47.477  12.986  1.00  0.00     0.000 C 
ATOM    916  C6F CER     1      49.346 -41.344  12.918  1.00  0.00     0.000 C 
ATOM    917  C6F CER     1     -48.029  46.556  12.994  1.00  0.00     0.000 C 
ATOM    918  C6F CER     1     -46.988 -51.343  12.995  1.00  0.00     0.000 C 
ATOM    919  C6S CER     1       2.760  -0.937  15.560  1.00  0.00     0.027 C 
ATOM    920  C6S CER     1      -9.888   6.344  15.564  1.00  0.00     0.027 C 
ATOM    921  C6S CER     1       6.471  -4.084  15.546  1.00  0.00     0.027 C 
ATOM    922  C6S CER     1      -5.171  10.475  15.452  1.00  0.00     0.027 C 
ATOM    923  C6S CER     1      12.747  12.241  15.229  1.00  0.00     0.027 C 
ATOM    924  C6S CER     1     -14.662   7.287  15.588  1.00  0.00     0.027 C 
ATOM    925  C6S CER     1      -8.527  20.083  15.217  1.00  0.00     0.005 C 
ATOM    926  C6S CER     1      18.986  19.679  15.537  1.00  0.00     0.027 C 
ATOM    927  C6S CER     1     -22.552   6.567  15.537  1.00  0.00     0.027 C 
ATOM    928  C6S CER     1      -6.841 -25.638  15.555  1.00  0.00     0.027 C 
ATOM    929  C6S CER     1      -5.245  27.031  15.554  1.00  0.00     0.027 C 
ATOM    930  C6S CER     1     -12.500  26.722  15.603  1.00  0.00     0.027 C 
ATOM    931  C6S CER     1       3.457 -32.857  15.491  1.00  0.00     0.027 C 
ATOM    932  C6S CER     1     -27.474 -19.584  15.632  1.00  0.00     0.027 C 
ATOM    933  C6S CER     1     -11.383 -30.844  15.543  1.00  0.00     0.027 C 
ATOM    934  C6S CER     1      21.969 -24.195  15.588  1.00  0.00     0.027 C 
ATOM    935  C6S CER     1      33.988  19.944  15.534  1.00  0.00     0.027 C 
ATOM    936  C6S CER     1       1.929  37.361  15.535  1.00  0.00     0.027 C 
ATOM    937  C6S CER     1      -1.485 -41.665  15.536  1.00  0.00     0.027 C 
ATOM    938  C6S CER     1     -35.665 -13.332  15.537  1.00  0.00     0.027 C 
ATOM    939  C6S CER     1      34.527 -27.185  15.541  1.00  0.00     0.027 C 
ATOM    940  C6S CER     1      26.966  37.678  15.472  1.00  0.00     0.027 C 
ATOM    941  C6S CER     1     -31.581  31.737  15.543  1.00  0.00     0.027 C 
ATOM    942  C6S CER     1     -41.467  -0.598  15.537  1.00  0.00     0.027 C 
ATOM    943  C6S CER     1      44.406   9.386  15.537  1.00  0.00     0.027 C 
ATOM    944  C6S CER     1      33.620 -31.313  15.467  1.00  0.00     0.027 C 
ATOM    945  C6S CER     1     -38.432  32.776  15.543  1.00  0.00     0.027 C 
ATOM    946  C6S CER     1     -14.724  44.754  15.415  1.00  0.00     0.027 C 
ATOM    947  C6S CER     1      -6.467  46.687  15.386  1.00  0.00     0.027 C 
ATOM    948  C6S CER     1       9.573  46.229  15.537  1.00  0.00     0.027 C 
ATOM    949  C6S CER     1     -29.578 -43.480  15.448  1.00  0.00     0.027 C 
ATOM    950  C6S CER     1      39.920 -32.350  15.558  1.00  0.00     0.027 C 
ATOM    951  C6S CER     1     -25.261 -48.530  15.561  1.00  0.00     0.027 C 
ATOM    952  C6S CER     1       7.061 -52.217  15.533  1.00  0.00     0.027 C 
ATOM    953  C6S CER     1      20.485 -49.298  15.544  1.00  0.00     0.027 C 
ATOM    954  C6S CER     1      25.732  47.590  15.483  1.00  0.00     0.027 C 
ATOM    955  C6S CER     1      34.695  36.242  15.546  1.00  0.00     0.027 C 
ATOM    956  C6S CER     1     -47.195  20.984  15.538  1.00  0.00     0.027 C 
ATOM    957  C6S CER     1     -36.364  42.559  15.539  1.00  0.00     0.027 C 
ATOM    958  C6S CER     1     -50.961  -7.208  15.546  1.00  0.00     0.027 C 
ATOM    959  C6S CER     1      32.808 -47.179  15.481  1.00  0.00     0.027 C 
ATOM    960  C6S CER     1     -18.155 -50.677  15.622  1.00  0.00     0.027 C 
ATOM    961  C6S CER     1     -45.281  29.262  15.569  1.00  0.00     0.027 C 
ATOM    962  C6S CER     1      17.891  52.612  15.476  1.00  0.00     0.027 C 
ATOM    963  C6S CER     1     -28.077  53.192  15.543  1.00  0.00     0.027 C 
ATOM    964  C6S CER     1      53.313 -28.910  15.324  1.00  0.00     0.027 C 
ATOM    965  C6S CER     1     -39.938 -46.861  15.976  1.00  0.00     0.030 C 
ATOM    966  C6S CER     1     -31.122 -47.301  15.546  1.00  0.00     0.027 C 
ATOM    967  C6S CER     1      36.985  45.318  15.539  1.00  0.00     0.027 C 
ATOM    968  C6S CER     1      55.039  35.723  15.300  1.00  0.00     0.028 C 
ATOM    969  C6S CER     1      41.074 -53.070  15.535  1.00  0.00     0.027 C 
ATOM    970  C6S CER     1      51.135 -47.889  15.490  1.00  0.00     0.027 C 
ATOM    971  C6S CER     1     -53.050  42.085  15.535  1.00  0.00     0.027 C 
ATOM    972  C6S CER     1     -51.235 -56.537  15.497  1.00  0.00     0.027 C 
ATOM    973  O6  CER     1      -3.536   5.504  20.465  1.00  0.00    -0.348 OA
ATOM    974  O6  CER     1     -12.268  -2.355  20.467  1.00  0.00    -0.348 OA
ATOM    975  O6  CER     1      12.236 -10.705  20.499  1.00  0.00    -0.348 OA
ATOM    976  O6  CER     1      -9.236  18.263  20.539  1.00  0.00    -0.348 OA
ATOM    977  O6  CER     1       8.271  19.657  20.490  1.00  0.00    -0.348 OA
ATOM    978  O6  CER     1     -18.028  15.628  20.480  1.00  0.00    -0.348 OA
ATOM    979  O6  CER     1       0.783  19.950  20.463  1.00  0.00    -0.348 OA
ATOM    980  O6  CER     1      16.011  11.149  20.512  1.00  0.00    -0.348 OA
ATOM    981  O6  CER     1     -30.891   9.821  20.473  1.00  0.00    -0.348 OA
ATOM    982  O6  CER     1     -12.248 -18.473  20.524  1.00  0.00    -0.348 OA
ATOM    983  O6  CER     1       3.042  30.499  20.524  1.00  0.00    -0.348 OA
ATOM    984  O6  CER     1     -10.272  34.890  20.500  1.00  0.00    -0.348 OA
ATOM    985  O6  CER     1       9.175 -39.762  20.497  1.00  0.00    -0.348 OA
ATOM    986  O6  CER     1     -29.851 -28.213  20.598  1.00  0.00    -0.348 OA
ATOM    987  O6  CER     1     -13.634 -39.581  20.452  1.00  0.00    -0.348 OA
ATOM    988  O6  CER     1      25.238 -32.513  20.480  1.00  0.00    -0.348 OA
ATOM    989  O6  CER     1      26.791  25.037  20.458  1.00  0.00    -0.348 OA
ATOM    990  O6  CER     1      -4.638  43.515  20.465  1.00  0.00    -0.348 OA
ATOM    991  O6  CER     1      -1.773 -32.654  20.469  1.00  0.00    -0.348 OA
ATOM    992  O6  CER     1     -43.187 -18.316  20.448  1.00  0.00    -0.348 OA
ATOM    993  O6  CER     1      33.036 -18.450  20.510  1.00  0.00    -0.348 OA
ATOM    994  O6  CER     1      20.978  30.819  20.496  1.00  0.00    -0.348 OA
ATOM    995  O6  CER     1     -22.573  32.277  20.482  1.00  0.00    -0.348 OA
ATOM    996  O6  CER     1     -46.515   6.839  20.479  1.00  0.00    -0.348 OA
ATOM    997  O6  CER     1      45.445   0.818  20.505  1.00  0.00    -0.370 OA
ATOM    998  O6  CER     1      29.058 -39.673  20.539  1.00  0.00    -0.348 OA
ATOM    999  O6  CER     1     -41.333  24.213  20.475  1.00  0.00    -0.348 OA
ATOM   1000  O6  CER     1     -21.311  51.012  20.481  1.00  0.00    -0.348 OA
ATOM   1001  O6  CER     1      -9.083  54.850  20.496  1.00  0.00    -0.348 OA
ATOM   1002  O6  CER     1      16.646  51.794  20.458  1.00  0.00    -0.348 OA
ATOM   1003  O6  CER     1     -30.223 -34.349  20.618  1.00  0.00    -0.348 OA
ATOM   1004  O6  CER     1      48.117 -28.713  20.430  1.00  0.00    -0.348 OA
ATOM   1005  O6  CER     1     -16.686 -45.478  20.515  1.00  0.00    -0.348 OA
ATOM   1006  O6  CER     1      -1.071 -48.453  20.499  1.00  0.00    -0.348 OA
ATOM   1007  O6  CER     1      29.169 -47.547  20.467  1.00  0.00    -0.348 OA
ATOM   1008  O6  CER     1      26.773  38.768  20.456  1.00  0.00    -0.348 OA
ATOM   1009  O6  CER     1      40.285  43.335  20.527  1.00  0.00    -0.348 OA
ATOM   1010  O6  CER     1     -56.156  18.452  20.531  1.00  0.00    -0.348 OA
ATOM   1011  O6  CER     1     -42.195  35.808  20.526  1.00  0.00    -0.348 OA
ATOM   1012  O6  CER     1     -59.805  -5.708  20.425  1.00  0.00    -0.370 OA
ATOM   1013  O6  CER     1      31.725 -38.731  20.509  1.00  0.00    -0.203 OA
ATOM   1014  O6  CER     1     -12.807 -57.689  20.294  1.00  0.00    -0.348 OA
ATOM   1015  O6  CER     1     -53.973  29.850  20.367  1.00  0.00    -0.348 OA
ATOM   1016  O6  CER     1      26.903  52.909  20.458  1.00  0.00    -0.348 OA
ATOM   1017  O6  CER     1     -21.992  46.517  20.455  1.00  0.00    -0.348 OA
ATOM   1018  O6  CER     1      52.347 -20.208  20.445  1.00  0.00    -0.348 OA
ATOM   1019  O6  CER     1     -35.667 -39.197  20.557  1.00  0.00    -0.348 OA
ATOM   1020  O6  CER     1     -38.191 -52.363  20.251  1.00  0.00    -0.348 OA
ATOM   1021  O6  CER     1      42.341  52.480  20.476  1.00  0.00    -0.348 OA
ATOM   1022  O6  CER     1      45.858  34.922  20.496  1.00  0.00    -0.348 OA
ATOM   1023  O6  CER     1      42.990 -44.340  20.531  1.00  0.00    -0.348 OA
ATOM   1024  O6  CER     1      45.908 -40.385  20.533  1.00  0.00    -0.348 OA
ATOM   1025  O6  CER     1     -48.810  50.172  20.525  1.00  0.00    -0.348 OA
ATOM   1026  O6  CER     1     -48.247 -48.052  20.479  1.00  0.00    -0.348 OA
ATOM   1027  C7F CER     1      -0.221   4.786  11.516  1.00  0.00     0.000 C 
ATOM   1028  C7F CER     1     -13.176   0.812  11.528  1.00  0.00     0.000 C 
ATOM   1029  C7F CER     1       9.172  -9.951  11.579  1.00  0.00     0.000 C 
ATOM   1030  C7F CER     1      -6.451  16.405  11.940  1.00  0.00     0.000 C 
ATOM   1031  C7F CER     1      11.435  18.283  11.542  1.00  0.00     0.000 C 
ATOM   1032  C7F CER     1     -15.223  13.721  11.517  1.00  0.00     0.000 C 
ATOM   1033  C7F CER     1      -2.016  18.089  11.500  1.00  0.00     0.000 C 
ATOM   1034  C7F CER     1      15.268  14.263  11.663  1.00  0.00     0.000 C 
ATOM   1035  C7F CER     1     -27.634  10.587  11.515  1.00  0.00     0.000 C 
ATOM   1036  C7F CER     1      -8.945 -19.524  11.512  1.00  0.00     0.000 C 
ATOM   1037  C7F CER     1       1.166  27.706  11.504  1.00  0.00     0.000 C 
ATOM   1038  C7F CER     1      -9.287  32.219  11.516  1.00  0.00     0.000 C 
ATOM   1039  C7F CER     1       6.141 -38.691  11.555  1.00  0.00     0.000 C 
ATOM   1040  C7F CER     1     -30.862 -25.043  11.514  1.00  0.00     0.000 C 
ATOM   1041  C7F CER     1     -14.746 -36.384  11.516  1.00  0.00     0.000 C 
ATOM   1042  C7F CER     1      22.451 -30.624  11.516  1.00  0.00     0.000 C 
ATOM   1043  C7F CER     1      29.954  25.005  11.523  1.00  0.00     0.000 C 
ATOM   1044  C7F CER     1      -1.287  42.972  11.504  1.00  0.00     0.000 C 
ATOM   1045  C7F CER     1       0.132 -35.393  11.552  1.00  0.00     0.000 C 
ATOM   1046  C7F CER     1     -41.835 -15.182  11.475  1.00  0.00     0.000 C 
ATOM   1047  C7F CER     1      35.398 -20.773  11.516  1.00  0.00     0.000 C 
ATOM   1048  C7F CER     1      21.334  34.227  11.514  1.00  0.00     0.000 C 
ATOM   1049  C7F CER     1     -25.308  30.259  11.496  1.00  0.00     0.000 C 
ATOM   1050  C7F CER     1     -43.403   5.608  11.533  1.00  0.00     0.000 C 
ATOM   1051  C7F CER     1      43.684   2.947  11.517  1.00  0.00     0.000 C 
ATOM   1052  C7F CER     1      28.775 -36.240  11.510  1.00  0.00     0.000 C 
ATOM   1053  C7F CER     1     -41.703  27.623  11.440  1.00  0.00     0.000 C 
ATOM   1054  C7F CER     1     -18.326  50.290  11.500  1.00  0.00     0.000 C 
ATOM   1055  C7F CER     1      -6.408  53.162  11.529  1.00  0.00     0.000 C 
ATOM   1056  C7F CER     1      15.601  48.611  11.517  1.00  0.00     0.000 C 
ATOM   1057  C7F CER     1     -28.158 -37.180  11.561  1.00  0.00     0.000 C 
ATOM   1058  C7F CER     1      46.344 -31.545  11.516  1.00  0.00     0.000 C 
ATOM   1059  C7F CER     1     -19.465 -47.888  11.365  1.00  0.00     0.000 C 
ATOM   1060  C7F CER     1       2.152 -47.985  11.516  1.00  0.00     0.000 C 
ATOM   1061  C7F CER     1      26.948 -49.812  11.517  1.00  0.00     0.000 C 
ATOM   1062  C7F CER     1      24.628  41.286  11.517  1.00  0.00     0.000 C 
ATOM   1063  C7F CER     1      40.070  39.852  11.515  1.00  0.00     0.000 C 
ATOM   1064  C7F CER     1     -53.656  21.121  11.522  1.00  0.00     0.000 C 
ATOM   1065  C7F CER     1     -41.869  39.003  11.547  1.00  0.00     0.000 C 
ATOM   1066  C7F CER     1     -56.691  -4.187  11.516  1.00  0.00     0.000 C 
ATOM   1067  C7F CER     1      33.464 -41.066  11.661  1.00  0.00     0.000 C 
ATOM   1068  C7F CER     1     -15.712 -56.304  11.457  1.00  0.00     0.000 C 
ATOM   1069  C7F CER     1     -50.919  31.334  11.791  1.00  0.00     0.000 C 
ATOM   1070  C7F CER     1      24.089  50.916  11.489  1.00  0.00     0.000 C 
ATOM   1071  C7F CER     1     -25.086  47.319  11.579  1.00  0.00     0.000 C 
ATOM   1072  C7F CER     1      54.492 -22.830  11.513  1.00  0.00     0.000 C 
ATOM   1073  C7F CER     1     -35.104 -42.517  11.533  1.00  0.00     0.000 C 
ATOM   1074  C7F CER     1     -36.377 -49.494  11.907  1.00  0.00     0.000 C 
ATOM   1075  C7F CER     1      42.754  49.452  11.658  1.00  0.00     0.000 C 
ATOM   1076  C7F CER     1      48.498  37.038  11.518  1.00  0.00     0.000 C 
ATOM   1077  C7F CER     1      44.402 -47.506  11.515  1.00  0.00     0.000 C 
ATOM   1078  C7F CER     1      49.054 -41.717  11.477  1.00  0.00     0.000 C 
ATOM   1079  C7F CER     1     -48.550  46.670  11.556  1.00  0.00     0.000 C 
ATOM   1080  C7F CER     1     -47.517 -51.291  11.555  1.00  0.00     0.000 C 
ATOM   1081  C7S CER     1       2.146  -2.076  14.763  1.00  0.00     0.004 C 
ATOM   1082  C7S CER     1      -8.543   6.310  14.850  1.00  0.00     0.004 C 
ATOM   1083  C7S CER     1       7.212  -2.956  14.805  1.00  0.00     0.004 C 
ATOM   1084  C7S CER     1      -6.094   9.484  14.800  1.00  0.00     0.004 C 
ATOM   1085  C7S CER     1      12.011  11.042  14.713  1.00  0.00     0.004 C 
ATOM   1086  C7S CER     1     -15.730   6.479  14.905  1.00  0.00     0.004 C 
ATOM   1087  C7S CER     1      -8.744  21.367  14.590  1.00  0.00     0.000 C 
ATOM   1088  C7S CER     1      20.336  19.595  14.800  1.00  0.00     0.004 C 
ATOM   1089  C7S CER     1     -22.679   5.222  14.803  1.00  0.00     0.004 C 
ATOM   1090  C7S CER     1      -7.684 -26.682  14.818  1.00  0.00     0.004 C 
ATOM   1091  C7S CER     1      -6.088  28.085  14.838  1.00  0.00     0.004 C 
ATOM   1092  C7S CER     1     -13.786  26.749  14.864  1.00  0.00     0.004 C 
ATOM   1093  C7S CER     1       4.203 -31.728  14.804  1.00  0.00     0.004 C 
ATOM   1094  C7S CER     1     -26.117 -19.707  14.990  1.00  0.00     0.004 C 
ATOM   1095  C7S CER     1     -10.031 -30.812  14.821  1.00  0.00     0.004 C 
ATOM   1096  C7S CER     1      23.086 -23.454  14.896  1.00  0.00     0.004 C 
ATOM   1097  C7S CER     1      33.571  18.653  14.803  1.00  0.00     0.004 C 
ATOM   1098  C7S CER     1       1.313  36.156  14.801  1.00  0.00     0.004 C 
ATOM   1099  C7S CER     1      -2.785 -42.023  14.803  1.00  0.00     0.004 C 
ATOM   1100  C7S CER     1     -34.637 -14.210  14.801  1.00  0.00     0.004 C 
ATOM   1101  C7S CER     1      33.280 -27.704  14.805  1.00  0.00     0.004 C 
ATOM   1102  C7S CER     1      28.100  37.155  14.730  1.00  0.00     0.004 C 
ATOM   1103  C7S CER     1     -32.024  33.014  14.813  1.00  0.00     0.004 C 
ATOM   1104  C7S CER     1     -42.335  -1.638  14.803  1.00  0.00     0.004 C 
ATOM   1105  C7S CER     1      45.615   9.994  14.801  1.00  0.00     0.004 C 
ATOM   1106  C7S CER     1      34.783 -31.934  14.741  1.00  0.00     0.004 C 
ATOM   1107  C7S CER     1     -37.083  32.715  14.808  1.00  0.00     0.004 C 
ATOM   1108  C7S CER     1     -15.340  43.591  14.728  1.00  0.00     0.004 C 
ATOM   1109  C7S CER     1      -7.524  45.879  14.719  1.00  0.00     0.004 C 
ATOM   1110  C7S CER     1       8.468  47.005  14.802  1.00  0.00     0.004 C 
ATOM   1111  C7S CER     1     -30.919 -43.782  14.759  1.00  0.00     0.004 C 
ATOM   1112  C7S CER     1      39.077 -31.298  14.840  1.00  0.00     0.004 C 
ATOM   1113  C7S CER     1     -25.974 -47.375  14.858  1.00  0.00     0.004 C 
ATOM   1114  C7S CER     1       6.882 -53.559  14.801  1.00  0.00     0.004 C 
ATOM   1115  C7S CER     1      19.841 -48.118  14.795  1.00  0.00     0.004 C 
ATOM   1116  C7S CER     1      27.024  48.124  14.826  1.00  0.00     0.004 C 
ATOM   1117  C7S CER     1      33.464  36.768  14.802  1.00  0.00     0.004 C 
ATOM   1118  C7S CER     1     -46.522  19.792  14.840  1.00  0.00     0.004 C 
ATOM   1119  C7S CER     1     -35.143  41.974  14.802  1.00  0.00     0.004 C 
ATOM   1120  C7S CER     1     -50.839  -8.553  14.823  1.00  0.00     0.004 C 
ATOM   1121  C7S CER     1      31.587 -47.819  14.789  1.00  0.00     0.004 C 
ATOM   1122  C7S CER     1     -17.001 -49.738  15.076  1.00  0.00     0.004 C 
ATOM   1123  C7S CER     1     -45.171  27.916  14.854  1.00  0.00     0.004 C 
ATOM   1124  C7S CER     1      17.424  53.838  14.756  1.00  0.00     0.004 C 
ATOM   1125  C7S CER     1     -27.371  54.352  14.830  1.00  0.00     0.004 C 
ATOM   1126  C7S CER     1      52.092 -29.645  14.736  1.00  0.00     0.004 C 
ATOM   1127  C7S CER     1     -41.275 -46.365  15.061  1.00  0.00     0.000 C 
ATOM   1128  C7S CER     1     -30.065 -48.139  14.824  1.00  0.00     0.004 C 
ATOM   1129  C7S CER     1      35.727  45.816  14.801  1.00  0.00     0.004 C 
ATOM   1130  C7S CER     1      55.411  34.420  14.612  1.00  0.00     0.004 C 
ATOM   1131  C7S CER     1      39.722 -53.125  14.801  1.00  0.00     0.004 C 
ATOM   1132  C7S CER     1      50.255 -48.931  14.786  1.00  0.00     0.004 C 
ATOM   1133  C7S CER     1     -54.374  42.374  14.805  1.00  0.00     0.004 C 
ATOM   1134  C7S CER     1     -52.595 -56.466  14.790  1.00  0.00     0.004 C 
ATOM   1135  C8F CER     1      -0.006   3.296  11.185  1.00  0.00     0.000 C 
ATOM   1136  C8F CER     1     -12.094   1.827  11.178  1.00  0.00     0.000 C 
ATOM   1137  C8F CER     1       8.981  -8.474  11.205  1.00  0.00     0.000 C 
ATOM   1138  C8F CER     1      -6.514  15.042  11.285  1.00  0.00     0.000 C 
ATOM   1139  C8F CER     1      11.220  16.800  11.205  1.00  0.00     0.000 C 
ATOM   1140  C8F CER     1     -15.586  12.260  11.185  1.00  0.00     0.000 C 
ATOM   1141  C8F CER     1      -3.136  19.091  11.114  1.00  0.00     0.000 C 
ATOM   1142  C8F CER     1      16.368  15.298  11.216  1.00  0.00     0.000 C 
ATOM   1143  C8F CER     1     -26.815   9.322  11.185  1.00  0.00     0.000 C 
ATOM   1144  C8F CER     1      -8.940 -21.025  11.179  1.00  0.00     0.000 C 
ATOM   1145  C8F CER     1      -0.285  28.040  11.161  1.00  0.00     0.000 C 
ATOM   1146  C8F CER     1     -10.462  31.276  11.178  1.00  0.00     0.000 C 
ATOM   1147  C8F CER     1       6.012 -37.199  11.239  1.00  0.00     0.000 C 
ATOM   1148  C8F CER     1     -29.696 -24.088  11.185  1.00  0.00     0.000 C 
ATOM   1149  C8F CER     1     -13.593 -35.415  11.185  1.00  0.00     0.000 C 
ATOM   1150  C8F CER     1      22.828 -29.167  11.185  1.00  0.00     0.000 C 
ATOM   1151  C8F CER     1      30.424  23.573  11.198  1.00  0.00     0.000 C 
ATOM   1152  C8F CER     1      -0.994  41.502  11.178  1.00  0.00     0.000 C 
ATOM   1153  C8F CER     1      -0.872 -36.545  11.310  1.00  0.00     0.000 C 
ATOM   1154  C8F CER     1     -40.348 -15.227  11.158  1.00  0.00     0.000 C 
ATOM   1155  C8F CER     1      34.729 -22.122  11.185  1.00  0.00     0.000 C 
ATOM   1156  C8F CER     1      22.794  34.599  11.187  1.00  0.00     0.000 C 
ATOM   1157  C8F CER     1     -26.575  31.036  11.163  1.00  0.00     0.000 C 
ATOM   1158  C8F CER     1     -43.527   4.105  11.253  1.00  0.00     0.000 C 
ATOM   1159  C8F CER     1      44.322   4.310  11.185  1.00  0.00     0.000 C 
ATOM   1160  C8F CER     1      30.131 -35.585  11.185  1.00  0.00     0.000 C 
ATOM   1161  C8F CER     1     -40.629  28.529  11.103  1.00  0.00     0.000 C 
ATOM   1162  C8F CER     1     -17.747  48.898  11.174  1.00  0.00     0.000 C 
ATOM   1163  C8F CER     1      -6.908  51.744  11.237  1.00  0.00     0.000 C 
ATOM   1164  C8F CER     1      14.097  48.532  11.185  1.00  0.00     0.000 C 
ATOM   1165  C8F CER     1     -29.024 -38.361  11.180  1.00  0.00     0.000 C 
ATOM   1166  C8F CER     1      44.869 -31.242  11.185  1.00  0.00     0.000 C 
ATOM   1167  C8F CER     1     -20.787 -47.640  11.110  1.00  0.00     0.000 C 
ATOM   1168  C8F CER     1       2.917 -49.282  11.185  1.00  0.00     0.000 C 
ATOM   1169  C8F CER     1      25.564 -49.219  11.185  1.00  0.00     0.000 C 
ATOM   1170  C8F CER     1      25.345  42.609  11.185  1.00  0.00     0.000 C 
ATOM   1171  C8F CER     1      38.617  39.458  11.184  1.00  0.00     0.000 C 
ATOM   1172  C8F CER     1     -52.239  20.618  11.186  1.00  0.00     0.000 C 
ATOM   1173  C8F CER     1     -40.335  39.180  11.269  1.00  0.00     0.000 C 
ATOM   1174  C8F CER     1     -55.654  -5.279  11.185  1.00  0.00     0.000 C 
ATOM   1175  C8F CER     1      32.898 -42.356  11.187  1.00  0.00     0.000 C 
ATOM   1176  C8F CER     1     -16.035 -54.855  11.146  1.00  0.00     0.000 C 
ATOM   1177  C8F CER     1     -49.926  30.414  11.223  1.00  0.00     0.000 C 
ATOM   1178  C8F CER     1      22.856  51.730  11.149  1.00  0.00     0.000 C 
ATOM   1179  C8F CER     1     -25.247  48.814  11.293  1.00  0.00     0.000 C 
ATOM   1180  C8F CER     1      53.756 -24.140  11.183  1.00  0.00     0.000 C 
ATOM   1181  C8F CER     1     -36.483 -43.115  11.247  1.00  0.00     0.000 C 
ATOM   1182  C8F CER     1     -35.112 -49.562  11.255  1.00  0.00     0.000 C 
ATOM   1183  C8F CER     1      41.420  48.974  11.523  1.00  0.00     0.000 C 
ATOM   1184  C8F CER     1      49.788  36.259  11.204  1.00  0.00     0.000 C 
ATOM   1185  C8F CER     1      43.257 -48.485  11.184  1.00  0.00     0.000 C 
ATOM   1186  C8F CER     1      49.037 -43.229  11.180  1.00  0.00     0.000 C 
ATOM   1187  C8F CER     1     -49.875  45.991  11.212  1.00  0.00     0.000 C 
ATOM   1188  C8F CER     1     -48.698 -52.194  11.202  1.00  0.00     0.000 C 
ATOM   1189  C8S CER     1       2.812  -2.204  13.363  1.00  0.00     0.000 C 
ATOM   1190  C8S CER     1      -8.691   6.705  13.422  1.00  0.00     0.000 C 
ATOM   1191  C8S CER     1       6.707  -2.727  13.391  1.00  0.00     0.000 C 
ATOM   1192  C8S CER     1      -5.527   9.253  13.431  1.00  0.00     0.000 C 
ATOM   1193  C8S CER     1      12.558  10.703  13.358  1.00  0.00     0.000 C 
ATOM   1194  C8S CER     1     -15.247   6.224  13.547  1.00  0.00     0.000 C 
ATOM   1195  C8S CER     1      -9.193  21.067  13.245  1.00  0.00     0.000 C 
ATOM   1196  C8S CER     1      20.286  20.154  13.387  1.00  0.00     0.000 C 
ATOM   1197  C8S CER     1     -22.157   5.279  13.380  1.00  0.00     0.000 C 
ATOM   1198  C8S CER     1      -7.201 -26.858  13.403  1.00  0.00     0.000 C 
ATOM   1199  C8S CER     1      -6.437  27.640  13.449  1.00  0.00     0.000 C 
ATOM   1200  C8S CER     1     -13.463  26.160  13.506  1.00  0.00     0.000 C 
ATOM   1201  C8S CER     1       3.654 -31.517  13.432  1.00  0.00     0.000 C 
ATOM   1202  C8S CER     1     -26.341 -19.551  13.558  1.00  0.00     0.000 C 
ATOM   1203  C8S CER     1     -10.138 -30.304  13.407  1.00  0.00     0.000 C 
ATOM   1204  C8S CER     1      22.744 -23.387  13.461  1.00  0.00     0.000 C 
ATOM   1205  C8S CER     1      34.121  18.561  13.389  1.00  0.00     0.000 C 
ATOM   1206  C8S CER     1       1.848  35.979  13.390  1.00  0.00     0.000 C 
ATOM   1207  C8S CER     1      -2.521 -42.487  13.382  1.00  0.00     0.000 C 
ATOM   1208  C8S CER     1     -34.340 -13.731  13.389  1.00  0.00     0.000 C 
ATOM   1209  C8S CER     1      33.563 -28.101  13.376  1.00  0.00     0.000 C 
ATOM   1210  C8S CER     1      28.079  37.760  13.360  1.00  0.00     0.000 C 
ATOM   1211  C8S CER     1     -32.501  32.756  13.402  1.00  0.00     0.000 C 
ATOM   1212  C8S CER     1     -41.853  -1.927  13.390  1.00  0.00     0.000 C 
ATOM   1213  C8S CER     1      45.287  10.457  13.390  1.00  0.00     0.000 C 
ATOM   1214  C8S CER     1      34.661 -31.542  13.326  1.00  0.00     0.000 C 
ATOM   1215  C8S CER     1     -37.162  33.274  13.403  1.00  0.00     0.000 C 
ATOM   1216  C8S CER     1     -14.799  43.483  13.339  1.00  0.00     0.000 C 
ATOM   1217  C8S CER     1      -7.079  45.474  13.352  1.00  0.00     0.000 C 
ATOM   1218  C8S CER     1       8.217  46.498  13.391  1.00  0.00     0.000 C 
ATOM   1219  C8S CER     1     -30.667 -44.212  13.350  1.00  0.00     0.000 C 
ATOM   1220  C8S CER     1      38.817 -31.686  13.422  1.00  0.00     0.000 C 
ATOM   1221  C8S CER     1     -26.251 -47.743  13.443  1.00  0.00     0.000 C 
ATOM   1222  C8S CER     1       7.445 -53.548  13.390  1.00  0.00     0.000 C 
ATOM   1223  C8S CER     1      19.406 -48.506  13.389  1.00  0.00     0.000 C 
ATOM   1224  C8S CER     1      26.813  48.605  13.421  1.00  0.00     0.000 C 
ATOM   1225  C8S CER     1      33.407  36.212  13.395  1.00  0.00     0.000 C 
ATOM   1226  C8S CER     1     -46.204  20.040  13.392  1.00  0.00     0.000 C 
ATOM   1227  C8S CER     1     -34.978  42.513  13.391  1.00  0.00     0.000 C 
ATOM   1228  C8S CER     1     -50.305  -8.401  13.424  1.00  0.00     0.000 C 
ATOM   1229  C8S CER     1      31.900 -48.312  13.386  1.00  0.00     0.000 C 
ATOM   1230  C8S CER     1     -17.348 -49.529  13.737  1.00  0.00     0.000 C 
ATOM   1231  C8S CER     1     -44.885  28.123  13.407  1.00  0.00     0.000 C 
ATOM   1232  C8S CER     1      16.933  53.531  13.366  1.00  0.00     0.000 C 
ATOM   1233  C8S CER     1     -27.889  54.592  13.434  1.00  0.00     0.000 C 
ATOM   1234  C8S CER     1      52.376 -30.199  13.360  1.00  0.00     0.000 C 
ATOM   1235  C8S CER     1     -41.730 -46.637  13.513  1.00  0.00     0.000 C 
ATOM   1236  C8S CER     1     -29.899 -47.694  13.402  1.00  0.00     0.000 C 
ATOM   1237  C8S CER     1      35.603  45.268  13.388  1.00  0.00     0.000 C 
ATOM   1238  C8S CER     1      55.714  34.878  13.247  1.00  0.00     0.000 C 
ATOM   1239  C8S CER     1      39.829 -53.675  13.388  1.00  0.00     0.000 C 
ATOM   1240  C8S CER     1      50.736 -49.213  13.379  1.00  0.00     0.000 C 
ATOM   1241  C8S CER     1     -54.413  41.815  13.396  1.00  0.00     0.000 C 
ATOM   1242  C8S CER     1     -52.544 -57.029  13.384  1.00  0.00     0.000 C 
ATOM   1243  C9F CER     1       1.409   2.739  11.434  1.00  0.00     0.000 C 
ATOM   1244  C9F CER     1     -12.375   3.319  11.450  1.00  0.00     0.000 C 
ATOM   1245  C9F CER     1       7.579  -7.874  11.446  1.00  0.00     0.000 C 
ATOM   1246  C9F CER     1      -5.231  14.202  11.462  1.00  0.00     0.000 C 
ATOM   1247  C9F CER     1      12.442  15.931  11.404  1.00  0.00     0.000 C 
ATOM   1248  C9F CER     1     -14.485  11.211  11.434  1.00  0.00     0.000 C 
ATOM   1249  C9F CER     1      -4.530  18.556  11.192  1.00  0.00     0.000 C 
ATOM   1250  C9F CER     1      16.223  16.852  11.455  1.00  0.00     0.000 C 
ATOM   1251  C9F CER     1     -25.295   9.406  11.432  1.00  0.00     0.000 C 
ATOM   1252  C9F CER     1      -7.613 -21.764  11.434  1.00  0.00     0.000 C 
ATOM   1253  C9F CER     1      -1.302  26.916  11.428  1.00  0.00     0.000 C 
ATOM   1254  C9F CER     1     -10.247  29.779  11.405  1.00  0.00     0.000 C 
ATOM   1255  C9F CER     1       4.721 -36.421  11.601  1.00  0.00     0.000 C 
ATOM   1256  C9F CER     1     -29.950 -22.589  11.432  1.00  0.00     0.000 C 
ATOM   1257  C9F CER     1     -13.865 -33.918  11.434  1.00  0.00     0.000 C 
ATOM   1258  C9F CER     1      21.738 -28.106  11.434  1.00  0.00     0.000 C 
ATOM   1259  C9F CER     1      31.896  23.257  11.442  1.00  0.00     0.000 C 
ATOM   1260  C9F CER     1       0.448  41.024  11.432  1.00  0.00     0.000 C 
ATOM   1261  C9F CER     1      -0.470 -37.933  11.702  1.00  0.00     0.000 C 
ATOM   1262  C9F CER     1     -39.566 -13.928  11.428  1.00  0.00     0.000 C 
ATOM   1263  C9F CER     1      35.577 -23.384  11.435  1.00  0.00     0.000 C 
ATOM   1264  C9F CER     1      23.198  36.065  11.435  1.00  0.00     0.000 C 
ATOM   1265  C9F CER     1     -27.904  30.304  11.429  1.00  0.00     0.000 C 
ATOM   1266  C9F CER     1     -42.322   3.253  11.562  1.00  0.00     0.000 C 
ATOM   1267  C9F CER     1      43.446   5.552  11.433  1.00  0.00     0.000 C 
ATOM   1268  C9F CER     1      30.233 -34.067  11.434  1.00  0.00     0.000 C 
ATOM   1269  C9F CER     1     -41.027  29.988  11.400  1.00  0.00     0.000 C 
ATOM   1270  C9F CER     1     -16.261  48.488  11.413  1.00  0.00     0.000 C 
ATOM   1271  C9F CER     1      -5.910  50.645  11.578  1.00  0.00     0.000 C 
ATOM   1272  C9F CER     1      13.413  47.173  11.434  1.00  0.00     0.000 C 
ATOM   1273  C9F CER     1     -28.302 -39.658  11.431  1.00  0.00     0.000 C 
ATOM   1274  C9F CER     1      43.864 -32.384  11.434  1.00  0.00     0.000 C 
ATOM   1275  C9F CER     1     -21.572 -48.910  11.421  1.00  0.00     0.000 C 
ATOM   1276  C9F CER     1       4.437 -49.260  11.434  1.00  0.00     0.000 C 
ATOM   1277  C9F CER     1      24.350 -50.135  11.433  1.00  0.00     0.000 C 
ATOM   1278  C9F CER     1      24.544  43.902  11.434  1.00  0.00     0.000 C 
ATOM   1279  C9F CER     1      38.236  37.986  11.434  1.00  0.00     0.000 C 
ATOM   1280  C9F CER     1     -51.081  21.607  11.433  1.00  0.00     0.000 C 
ATOM   1281  C9F CER     1     -39.553  40.417  11.750  1.00  0.00     0.000 C 
ATOM   1282  C9F CER     1     -54.177  -4.918  11.434  1.00  0.00     0.000 C 
ATOM   1283  C9F CER     1      33.865 -43.527  11.435  1.00  0.00     0.000 C 
ATOM   1284  C9F CER     1     -17.442 -54.250  11.428  1.00  0.00     0.000 C 
ATOM   1285  C9F CER     1     -48.572  31.082  11.434  1.00  0.00     0.000 C 
ATOM   1286  C9F CER     1      21.523  51.015  11.424  1.00  0.00     0.000 C 
ATOM   1287  C9F CER     1     -26.564  49.457  11.593  1.00  0.00     0.000 C 
ATOM   1288  C9F CER     1      54.546 -25.436  11.433  1.00  0.00     0.000 C 
ATOM   1289  C9F CER     1     -36.625 -44.555  11.580  1.00  0.00     0.000 C 
ATOM   1290  C9F CER     1     -34.605 -48.220  11.482  1.00  0.00     0.000 C 
ATOM   1291  C9F CER     1      41.340  47.532  11.260  1.00  0.00     0.000 C 
ATOM   1292  C9F CER     1      51.103  37.006  11.469  1.00  0.00     0.000 C 
ATOM   1293  C9F CER     1      43.540 -49.979  11.433  1.00  0.00     0.000 C 
ATOM   1294  C9F CER     1      50.353 -43.988  11.435  1.00  0.00     0.000 C 
ATOM   1295  C9F CER     1     -49.913  44.465  11.443  1.00  0.00     0.000 C 
ATOM   1296  C9F CER     1     -48.508 -53.708  11.442  1.00  0.00     0.000 C 
ATOM   1297  C9S CER     1       2.194  -3.047  12.266  1.00  0.00     0.000 C 
ATOM   1298  C9S CER     1      -7.511   6.170  12.587  1.00  0.00     0.000 C 
ATOM   1299  C9S CER     1       7.618  -1.814  12.550  1.00  0.00     0.000 C 
ATOM   1300  C9S CER     1      -6.619   8.959  12.471  1.00  0.00     0.000 C 
ATOM   1301  C9S CER     1      11.516   9.961  12.533  1.00  0.00     0.000 C 
ATOM   1302  C9S CER     1     -16.452   5.959  12.777  1.00  0.00     0.000 C 
ATOM   1303  C9S CER     1      -9.219  22.376  12.493  1.00  0.00     0.000 C 
ATOM   1304  C9S CER     1      21.532  19.800  12.549  1.00  0.00     0.000 C 
ATOM   1305  C9S CER     1     -22.524   4.029  12.553  1.00  0.00     0.000 C 
ATOM   1306  C9S CER     1      -8.170 -27.608  12.515  1.00  0.00     0.000 C 
ATOM   1307  C9S CER     1      -6.949  28.798  12.644  1.00  0.00     0.000 C 
ATOM   1308  C9S CER     1     -14.356  26.731  12.480  1.00  0.00     0.000 C 
ATOM   1309  C9S CER     1       4.547 -30.657  12.578  1.00  0.00     0.000 C 
ATOM   1310  C9S CER     1     -25.015 -19.977  12.804  1.00  0.00     0.000 C 
ATOM   1311  C9S CER     1      -8.908 -30.693  12.565  1.00  0.00     0.000 C 
ATOM   1312  C9S CER     1      23.977 -22.976  12.718  1.00  0.00     0.000 C 
ATOM   1313  C9S CER     1      33.464  17.446  12.553  1.00  0.00     0.000 C 
ATOM   1314  C9S CER     1       1.028  34.979  12.551  1.00  0.00     0.000 C 
ATOM   1315  C9S CER     1      -3.790 -42.613  12.475  1.00  0.00     0.000 C 
ATOM   1316  C9S CER     1     -33.556 -14.761  12.551  1.00  0.00     0.000 C 
ATOM   1317  C9S CER     1      32.329 -28.498  12.549  1.00  0.00     0.000 C 
ATOM   1318  C9S CER     1      29.051  36.997  12.507  1.00  0.00     0.000 C 
ATOM   1319  C9S CER     1     -32.630  34.065  12.597  1.00  0.00     0.000 C 
ATOM   1320  C9S CER     1     -42.870  -2.726  12.551  1.00  0.00     0.000 C 
ATOM   1321  C9S CER     1      46.539  10.780  12.550  1.00  0.00     0.000 C 
ATOM   1322  C9S CER     1      35.664 -32.153  12.427  1.00  0.00     0.000 C 
ATOM   1323  C9S CER     1     -35.934  32.953  12.542  1.00  0.00     0.000 C 
ATOM   1324  C9S CER     1     -15.651  42.518  12.505  1.00  0.00     0.000 C 
ATOM   1325  C9S CER     1      -8.286  45.014  12.539  1.00  0.00     0.000 C 
ATOM   1326  C9S CER     1       7.341  47.451  12.556  1.00  0.00     0.000 C 
ATOM   1327  C9S CER     1     -31.937 -44.442  12.540  1.00  0.00     0.000 C 
ATOM   1328  C9S CER     1      38.320 -30.471  12.605  1.00  0.00     0.000 C 
ATOM   1329  C9S CER     1     -26.713 -46.513  12.612  1.00  0.00     0.000 C 
ATOM   1330  C9S CER     1       7.007 -54.764  12.551  1.00  0.00     0.000 C 
ATOM   1331  C9S CER     1      19.032 -47.312  12.518  1.00  0.00     0.000 C 
ATOM   1332  C9S CER     1      28.019  48.889  12.536  1.00  0.00     0.000 C 
ATOM   1333  C9S CER     1      32.411  36.963  12.531  1.00  0.00     0.000 C 
ATOM   1334  C9S CER     1     -45.725  18.766  12.624  1.00  0.00     0.000 C 
ATOM   1335  C9S CER     1     -33.955  41.720  12.552  1.00  0.00     0.000 C 
ATOM   1336  C9S CER     1     -50.532  -9.656  12.596  1.00  0.00     0.000 C 
ATOM   1337  C9S CER     1      30.639 -48.595  12.549  1.00  0.00     0.000 C 
ATOM   1338  C9S CER     1     -16.605 -48.333  12.683  1.00  0.00     0.000 C 
ATOM   1339  C9S CER     1     -44.956  26.761  12.622  1.00  0.00     0.000 C 
ATOM   1340  C9S CER     1      16.793  54.814  12.538  1.00  0.00     0.000 C 
ATOM   1341  C9S CER     1     -26.979  55.587  12.683  1.00  0.00     0.000 C 
ATOM   1342  C9S CER     1      51.092 -30.428  12.547  1.00  0.00     0.000 C 
ATOM   1343  C9S CER     1     -42.695 -46.511  12.339  1.00  0.00     0.000 C 
ATOM   1344  C9S CER     1     -29.284 -48.741  12.482  1.00  0.00     0.000 C 
ATOM   1345  C9S CER     1      34.521  45.978  12.548  1.00  0.00     0.000 C 
ATOM   1346  C9S CER     1      55.806  33.783  12.266  1.00  0.00     0.000 C 
ATOM   1347  C9S CER     1      38.554 -53.450  12.551  1.00  0.00     0.000 C 
ATOM   1348  C9S CER     1      49.733 -50.031  12.548  1.00  0.00     0.000 C 
ATOM   1349  C9S CER     1     -55.596  42.355  12.570  1.00  0.00     0.000 C 
ATOM   1350  C9S CER     1     -53.791 -56.680  12.550  1.00  0.00     0.000 C 
ATOM   1351  C10 CER     1       2.447   2.903  10.298  1.00  0.00     0.000 C 
ATOM   1352  C10 CER     1     -12.970   4.157  10.308  1.00  0.00     0.000 C 
ATOM   1353  C10 CER     1       6.534  -7.967  10.309  1.00  0.00     0.000 C 
ATOM   1354  C10 CER     1      -4.196  14.091  10.305  1.00  0.00     0.000 C 
ATOM   1355  C10 CER     1      13.314  15.956  10.151  1.00  0.00     0.000 C 
ATOM   1356  C10 CER     1     -13.463  10.972  10.298  1.00  0.00     0.000 C 
ATOM   1357  C10 CER     1      -5.045  17.762   9.969  1.00  0.00     0.000 C 
ATOM   1358  C10 CER     1      15.805  17.849  10.319  1.00  0.00     0.000 C 
ATOM   1359  C10 CER     1     -24.422   9.993  10.297  1.00  0.00     0.000 C 
ATOM   1360  C10 CER     1      -6.563 -21.742  10.298  1.00  0.00     0.000 C 
ATOM   1361  C10 CER     1      -1.517  25.886  10.296  1.00  0.00     0.000 C 
ATOM   1362  C10 CER     1      -9.710  28.969  10.216  1.00  0.00     0.000 C 
ATOM   1363  C10 CER     1       3.774 -36.377  10.438  1.00  0.00     0.000 C 
ATOM   1364  C10 CER     1     -30.626 -21.787  10.296  1.00  0.00     0.000 C 
ATOM   1365  C10 CER     1     -14.552 -33.123  10.298  1.00  0.00     0.000 C 
ATOM   1366  C10 CER     1      20.718 -27.857  10.297  1.00  0.00     0.000 C 
ATOM   1367  C10 CER     1      32.780  23.571  10.244  1.00  0.00     0.000 C 
ATOM   1368  C10 CER     1       1.476  41.241  10.297  1.00  0.00     0.000 C 
ATOM   1369  C10 CER     1       0.030 -38.569  10.492  1.00  0.00     0.000 C 
ATOM   1370  C10 CER     1     -39.545 -12.876  10.296  1.00  0.00     0.000 C 
ATOM   1371  C10 CER     1      36.528 -23.837  10.300  1.00  0.00     0.000 C 
ATOM   1372  C10 CER     1      22.926  37.075  10.295  1.00  0.00     0.000 C 
ATOM   1373  C10 CER     1     -28.451  29.405  10.297  1.00  0.00     0.000 C 
ATOM   1374  C10 CER     1     -41.544   3.074  10.314  1.00  0.00     0.000 C 
ATOM   1375  C10 CER     1      42.487   5.985  10.298  1.00  0.00     0.000 C 
ATOM   1376  C10 CER     1      29.763 -33.127  10.298  1.00  0.00     0.000 C 
ATOM   1377  C10 CER     1     -41.750  30.771  10.287  1.00  0.00     0.000 C 
ATOM   1378  C10 CER     1     -15.217  48.728  10.289  1.00  0.00     0.000 C 
ATOM   1379  C10 CER     1      -4.946  50.433  10.484  1.00  0.00     0.000 C 
ATOM   1380  C10 CER     1      13.482  46.125  10.299  1.00  0.00     0.000 C 
ATOM   1381  C10 CER     1     -27.386 -40.134  10.292  1.00  0.00     0.000 C 
ATOM   1382  C10 CER     1      43.666 -33.416  10.298  1.00  0.00     0.000 C 
ATOM   1383  C10 CER     1     -21.684 -49.949  10.294  1.00  0.00     0.000 C 
ATOM   1384  C10 CER     1       5.334 -48.713  10.298  1.00  0.00     0.000 C 
ATOM   1385  C10 CER     1      23.949 -51.107  10.298  1.00  0.00     0.000 C 
ATOM   1386  C10 CER     1      23.613  44.392  10.298  1.00  0.00     0.000 C 
ATOM   1387  C10 CER     1      38.525  36.976  10.298  1.00  0.00     0.000 C 
ATOM   1388  C10 CER     1     -50.736  22.600  10.297  1.00  0.00     0.000 C 
ATOM   1389  C10 CER     1     -39.302  41.292  10.556  1.00  0.00     0.000 C 
ATOM   1390  C10 CER     1     -53.426  -4.184  10.298  1.00  0.00     0.000 C 
ATOM   1391  C10 CER     1      34.836 -43.946  10.304  1.00  0.00     0.000 C 
ATOM   1392  C10 CER     1     -18.506 -54.281  10.298  1.00  0.00     0.000 C 
ATOM   1393  C10 CER     1     -47.985  31.948  10.293  1.00  0.00     0.000 C 
ATOM   1394  C10 CER     1      20.969  50.118  10.295  1.00  0.00     0.000 C 
ATOM   1395  C10 CER     1     -27.336  49.297  10.310  1.00  0.00     0.000 C 
ATOM   1396  C10 CER     1      55.473 -25.928  10.297  1.00  0.00     0.000 C 
ATOM   1397  C10 CER     1     -36.234 -45.281  10.367  1.00  0.00     0.000 C 
ATOM   1398  C10 CER     1     -34.612 -47.415  10.226  1.00  0.00     0.000 C 
ATOM   1399  C10 CER     1      41.082  47.094   9.514  1.00  0.00    -0.032 C 
ATOM   1400  C10 CER     1      51.587  37.884  10.317  1.00  0.00     0.000 C 
ATOM   1401  C10 CER     1      44.233 -50.769  10.298  1.00  0.00     0.000 C 
ATOM   1402  C10 CER     1      51.404 -43.977  10.299  1.00  0.00     0.000 C 
ATOM   1403  C10 CER     1     -49.433  43.533  10.301  1.00  0.00     0.000 C 
ATOM   1404  C10 CER     1     -47.919 -54.579  10.300  1.00  0.00     0.000 C 
ATOM   1405  C10 CER     1       2.506  -3.088  10.828  1.00  0.00     0.000 C 
ATOM   1406  C10 CER     1      -7.807   6.621  11.189  1.00  0.00     0.000 C 
ATOM   1407  C10 CER     1       7.122  -1.677  11.107  1.00  0.00     0.000 C 
ATOM   1408  C10 CER     1      -5.997   8.576  11.124  1.00  0.00     0.000 C 
ATOM   1409  C10 CER     1      12.001   9.766  11.104  1.00  0.00     0.000 C 
ATOM   1410  C10 CER     1     -16.067   6.102  11.385  1.00  0.00     0.000 C 
ATOM   1411  C10 CER     1      -9.627  22.085  11.072  1.00  0.00     0.000 C 
ATOM   1412  C10 CER     1      21.412  20.295  11.106  1.00  0.00     0.000 C 
ATOM   1413  C10 CER     1     -22.104   4.149  11.090  1.00  0.00     0.000 C 
ATOM   1414  C10 CER     1      -7.571 -27.811  11.119  1.00  0.00     0.000 C 
ATOM   1415  C10 CER     1      -7.119  28.341  11.228  1.00  0.00     0.000 C 
ATOM   1416  C10 CER     1     -14.169  26.088  11.037  1.00  0.00     0.000 C 
ATOM   1417  C10 CER     1       3.868 -30.582  11.213  1.00  0.00     0.000 C 
ATOM   1418  C10 CER     1     -25.004 -19.751  11.277  1.00  0.00     0.000 C 
ATOM   1419  C10 CER     1      -9.133 -30.211  11.149  1.00  0.00     0.000 C 
ATOM   1420  C10 CER     1      23.822 -23.064  11.196  1.00  0.00     0.000 C 
ATOM   1421  C10 CER     1      33.974  17.437  11.109  1.00  0.00     0.000 C 
ATOM   1422  C10 CER     1       1.528  34.894  11.107  1.00  0.00     0.000 C 
ATOM   1423  C10 CER     1      -3.535 -43.021  11.018  1.00  0.00     0.000 C 
ATOM   1424  C10 CER     1     -33.357 -14.293  11.107  1.00  0.00     0.000 C 
ATOM   1425  C10 CER     1      32.690 -28.876  11.111  1.00  0.00     0.000 C 
ATOM   1426  C10 CER     1      29.136  37.535  11.102  1.00  0.00     0.000 C 
ATOM   1427  C10 CER     1     -32.977  33.757  11.166  1.00  0.00     0.000 C 
ATOM   1428  C10 CER     1     -42.400  -2.918  11.106  1.00  0.00     0.000 C 
ATOM   1429  C10 CER     1      46.183  11.148  11.107  1.00  0.00     0.000 C 
ATOM   1430  C10 CER     1      35.520 -31.491  11.065  1.00  0.00     0.000 C 
ATOM   1431  C10 CER     1     -36.142  33.481  11.126  1.00  0.00     0.000 C 
ATOM   1432  C10 CER     1     -15.154  42.423  11.066  1.00  0.00     0.000 C 
ATOM   1433  C10 CER     1      -7.887  44.688  11.117  1.00  0.00     0.000 C 
ATOM   1434  C10 CER     1       7.183  46.971  11.115  1.00  0.00     0.000 C 
ATOM   1435  C10 CER     1     -31.629 -44.798  11.098  1.00  0.00     0.000 C 
ATOM   1436  C10 CER     1      38.175 -30.930  11.180  1.00  0.00     0.000 C 
ATOM   1437  C10 CER     1     -26.789 -46.767  11.120  1.00  0.00     0.000 C 
ATOM   1438  C10 CER     1       7.507 -54.678  11.106  1.00  0.00     0.000 C 
ATOM   1439  C10 CER     1      18.687 -47.647  11.078  1.00  0.00     0.000 C 
ATOM   1440  C10 CER     1      27.610  49.302  11.116  1.00  0.00     0.000 C 
ATOM   1441  C10 CER     1      32.326  36.428  11.115  1.00  0.00     0.000 C 
ATOM   1442  C10 CER     1     -45.524  18.837  11.104  1.00  0.00     0.000 C 
ATOM   1443  C10 CER     1     -33.884  42.222  11.108  1.00  0.00     0.000 C 
ATOM   1444  C10 CER     1     -50.202  -9.340  11.164  1.00  0.00     0.000 C 
ATOM   1445  C10 CER     1      30.980 -48.972  11.105  1.00  0.00     0.000 C 
ATOM   1446  C10 CER     1     -16.766 -48.157  11.018  1.00  0.00     0.000 C 
ATOM   1447  C10 CER     1     -44.631  26.820  11.140  1.00  0.00     0.000 C 
ATOM   1448  C10 CER     1      16.383  54.510  11.101  1.00  0.00     0.000 C 
ATOM   1449  C10 CER     1     -27.448  55.909  11.301  1.00  0.00     0.000 C 
ATOM   1450  C10 CER     1      51.391 -30.762  11.090  1.00  0.00     0.000 C 
ATOM   1451  C10 CER     1     -42.248 -47.367  11.050  1.00  0.00     0.000 C 
ATOM   1452  C10 CER     1     -29.236 -48.270  11.061  1.00  0.00     0.000 C 
ATOM   1453  C10 CER     1      34.470  45.455  11.106  1.00  0.00     0.000 C 
ATOM   1454  C10 CER     1      56.215  33.852  10.858  1.00  0.00     0.000 C 
ATOM   1455  C10 CER     1      38.726 -53.930  11.107  1.00  0.00     0.000 C 
ATOM   1456  C10 CER     1      50.206 -50.212  11.105  1.00  0.00     0.000 C 
ATOM   1457  C10 CER     1     -55.527  41.881  11.129  1.00  0.00     0.000 C 
ATOM   1458  C10 CER     1     -53.666 -57.172  11.106  1.00  0.00     0.000 C 
ATOM   1459  C11 CER     1      -1.876   5.439  22.339  1.00  0.00     0.197 C 
ATOM   1460  C11 CER     1     -13.059  -0.852  22.348  1.00  0.00     0.197 C 
ATOM   1461  C11 CER     1      10.684 -10.749  22.364  1.00  0.00     0.197 C 
ATOM   1462  C11 CER     1      -7.527  17.820  22.368  1.00  0.00     0.197 C 
ATOM   1463  C11 CER     1       9.901  19.294  22.344  1.00  0.00     0.197 C 
ATOM   1464  C11 CER     1     -16.507  14.926  22.354  1.00  0.00     0.197 C 
ATOM   1465  C11 CER     1      -0.380  18.791  22.369  1.00  0.00     0.197 C 
ATOM   1466  C11 CER     1      15.283  12.732  22.341  1.00  0.00     0.197 C 
ATOM   1467  C11 CER     1     -29.396  10.471  22.360  1.00  0.00     0.197 C 
ATOM   1468  C11 CER     1     -10.488 -18.646  22.344  1.00  0.00     0.197 C 
ATOM   1469  C11 CER     1       2.381  29.011  22.386  1.00  0.00     0.197 C 
ATOM   1470  C11 CER     1      -9.591  33.859  22.392  1.00  0.00     0.197 C 
ATOM   1471  C11 CER     1       7.462 -39.630  22.347  1.00  0.00     0.197 C 
ATOM   1472  C11 CER     1     -30.573 -26.764  22.379  1.00  0.00     0.197 C 
ATOM   1473  C11 CER     1     -14.419 -38.110  22.335  1.00  0.00     0.197 C 
ATOM   1474  C11 CER     1      23.732 -31.838  22.354  1.00  0.00     0.197 C 
ATOM   1475  C11 CER     1      28.270  25.290  22.365  1.00  0.00     0.197 C 
ATOM   1476  C11 CER     1      -2.980  43.548  22.324  1.00  0.00     0.197 C 
ATOM   1477  C11 CER     1      -0.600 -33.852  22.339  1.00  0.00     0.197 C 
ATOM   1478  C11 CER     1     -42.809 -16.663  22.328  1.00  0.00     0.197 C 
ATOM   1479  C11 CER     1      34.405 -19.344  22.349  1.00  0.00     0.197 C 
ATOM   1480  C11 CER     1      20.840  32.516  22.353  1.00  0.00     0.197 C 
ATOM   1481  C11 CER     1     -23.723  31.050  22.328  1.00  0.00     0.197 C 
ATOM   1482  C11 CER     1     -44.888   6.511  22.342  1.00  0.00     0.197 C 
ATOM   1483  C11 CER     1      44.700   1.586  22.420  1.00  0.00     0.197 C 
ATOM   1484  C11 CER     1      28.507 -37.950  22.485  1.00  0.00     0.196 C 
ATOM   1485  C11 CER     1     -41.999  25.747  22.325  1.00  0.00     0.197 C 
ATOM   1486  C11 CER     1     -19.552  51.099  22.337  1.00  0.00     0.197 C 
ATOM   1487  C11 CER     1      -7.502  54.362  22.368  1.00  0.00     0.197 C 
ATOM   1488  C11 CER     1      16.394  50.152  22.342  1.00  0.00     0.197 C 
ATOM   1489  C11 CER     1     -29.123 -35.489  22.432  1.00  0.00     0.197 C 
ATOM   1490  C11 CER     1      47.486 -30.227  22.342  1.00  0.00     0.197 C 
ATOM   1491  C11 CER     1     -17.543 -47.085  22.342  1.00  0.00     0.197 C 
ATOM   1492  C11 CER     1       0.409 -48.035  22.384  1.00  0.00     0.197 C 
ATOM   1493  C11 CER     1      28.334 -48.780  22.360  1.00  0.00     0.197 C 
ATOM   1494  C11 CER     1      25.567  39.795  22.351  1.00  0.00     0.197 C 
ATOM   1495  C11 CER     1      40.488  41.555  22.372  1.00  0.00     0.197 C 
ATOM   1496  C11 CER     1     -54.928  20.109  22.424  1.00  0.00     0.197 C 
ATOM   1497  C11 CER     1     -42.409  37.500  22.359  1.00  0.00     0.197 C 
ATOM   1498  C11 CER     1     -58.531  -4.640  22.360  1.00  0.00     0.197 C 
ATOM   1499  C11 CER     1      33.042 -39.409  22.432  1.00  0.00     0.171 C 
ATOM   1500  C11 CER     1     -14.666 -57.071  22.370  1.00  0.00     0.197 C 
ATOM   1501  C11 CER     1     -52.812  31.034  22.295  1.00  0.00     0.197 C 
ATOM   1502  C11 CER     1      25.733  51.652  22.344  1.00  0.00     0.197 C 
ATOM   1503  C11 CER     1     -23.733  46.586  22.316  1.00  0.00     0.197 C 
ATOM   1504  C11 CER     1      53.375 -21.284  22.373  1.00  0.00     0.197 C 
ATOM   1505  C11 CER     1     -35.056 -40.821  22.371  1.00  0.00     0.197 C 
ATOM   1506  C11 CER     1     -37.980 -50.816  22.253  1.00  0.00     0.197 C 
ATOM   1507  C11 CER     1      42.651  50.793  22.349  1.00  0.00     0.197 C 
ATOM   1508  C11 CER     1      46.950  36.201  22.379  1.00  0.00     0.197 C 
ATOM   1509  C11 CER     1      44.050 -45.779  22.361  1.00  0.00     0.197 C 
ATOM   1510  C11 CER     1      47.560 -40.885  22.349  1.00  0.00     0.197 C 
ATOM   1511  C11 CER     1     -48.575  48.507  22.418  1.00  0.00     0.197 C 
ATOM   1512  C11 CER     1     -47.560 -49.571  22.350  1.00  0.00     0.197 C 
ATOM   1513  C11 CER     1       2.060   2.336   8.921  1.00  0.00     0.000 C 
ATOM   1514  C11 CER     1     -12.333   4.109   8.934  1.00  0.00     0.000 C 
ATOM   1515  C11 CER     1       6.944  -7.427   8.940  1.00  0.00     0.000 C 
ATOM   1516  C11 CER     1      -4.741  13.617   8.944  1.00  0.00     0.000 C 
ATOM   1517  C11 CER     1      12.901  15.382   8.834  1.00  0.00     0.000 C 
ATOM   1518  C11 CER     1     -14.035  10.592   8.921  1.00  0.00     0.000 C 
ATOM   1519  C11 CER     1      -5.344  18.365   8.679  1.00  0.00     0.000 C 
ATOM   1520  C11 CER     1      16.458  17.651   8.935  1.00  0.00     0.000 C 
ATOM   1521  C11 CER     1     -24.535   9.317   8.920  1.00  0.00     0.000 C 
ATOM   1522  C11 CER     1      -7.024 -22.251   8.921  1.00  0.00     0.000 C 
ATOM   1523  C11 CER     1      -1.905  26.451   8.920  1.00  0.00     0.000 C 
ATOM   1524  C11 CER     1     -10.316  28.996   8.841  1.00  0.00     0.000 C 
ATOM   1525  C11 CER     1       4.049 -35.953   8.989  1.00  0.00     0.000 C 
ATOM   1526  C11 CER     1     -29.936 -21.828   8.919  1.00  0.00     0.000 C 
ATOM   1527  C11 CER     1     -13.866 -33.152   8.921  1.00  0.00     0.000 C 
ATOM   1528  C11 CER     1      21.293 -27.484   8.922  1.00  0.00     0.000 C 
ATOM   1529  C11 CER     1      32.614  22.991   8.863  1.00  0.00     0.000 C 
ATOM   1530  C11 CER     1       1.119  40.655   8.920  1.00  0.00     0.000 C 
ATOM   1531  C11 CER     1      -0.439 -38.923   9.079  1.00  0.00     0.000 C 
ATOM   1532  C11 CER     1     -39.059 -13.359   8.920  1.00  0.00     0.000 C 
ATOM   1533  C11 CER     1      35.891 -24.084   8.923  1.00  0.00     0.000 C 
ATOM   1534  C11 CER     1      23.546  36.747   8.921  1.00  0.00     0.000 C 
ATOM   1535  C11 CER     1     -28.632  30.072   8.923  1.00  0.00     0.000 C 
ATOM   1536  C11 CER     1     -42.213   2.660   9.003  1.00  0.00     0.000 C 
ATOM   1537  C11 CER     1      43.121   6.248   8.921  1.00  0.00     0.000 C 
ATOM   1538  C11 CER     1      30.421 -33.323   8.921  1.00  0.00     0.000 C 
ATOM   1539  C11 CER     1     -41.078  30.685   8.920  1.00  0.00     0.000 C 
ATOM   1540  C11 CER     1     -15.559  48.148   8.910  1.00  0.00     0.000 C 
ATOM   1541  C11 CER     1      -5.680  50.339   9.164  1.00  0.00     0.000 C 
ATOM   1542  C11 CER     1      12.951  46.562   8.922  1.00  0.00     0.000 C 
ATOM   1543  C11 CER     1     -28.051 -40.309   8.917  1.00  0.00     0.000 C 
ATOM   1544  C11 CER     1      43.264 -32.861   8.921  1.00  0.00     0.000 C 
ATOM   1545  C11 CER     1     -22.033 -49.365   8.931  1.00  0.00     0.000 C 
ATOM   1546  C11 CER     1       5.192 -49.385   8.921  1.00  0.00     0.000 C 
ATOM   1547  C11 CER     1      23.667 -50.481   8.921  1.00  0.00     0.000 C 
ATOM   1548  C11 CER     1      24.263  44.617   8.922  1.00  0.00     0.000 C 
ATOM   1549  C11 CER     1      37.916  37.291   8.921  1.00  0.00     0.000 C 
ATOM   1550  C11 CER     1     -50.417  21.993   8.919  1.00  0.00     0.000 C 
ATOM   1551  C11 CER     1     -38.984  40.925   8.983  1.00  0.00     0.000 C 
ATOM   1552  C11 CER     1     -53.413  -4.869   8.921  1.00  0.00     0.000 C 
ATOM   1553  C11 CER     1      34.201 -44.199   8.936  1.00  0.00     0.000 C 
ATOM   1554  C11 CER     1     -18.058 -53.768   8.920  1.00  0.00     0.000 C 
ATOM   1555  C11 CER     1     -47.905  31.280   8.915  1.00  0.00     0.000 C 
ATOM   1556  C11 CER     1      20.802  50.783   8.919  1.00  0.00     0.000 C 
ATOM   1557  C11 CER     1     -26.635  49.166   8.853  1.00  0.00     0.000 C 
ATOM   1558  C11 CER     1      54.822 -26.146   8.920  1.00  0.00     0.000 C 
ATOM   1559  C11 CER     1     -36.861 -45.226   8.991  1.00  0.00     0.000 C 
ATOM   1560  C11 CER     1     -34.271 -47.719   8.795  1.00  0.00     0.000 C 
ATOM   1561  C11 CER     1      40.045  46.847   8.264  1.00  0.00     0.037 C 
ATOM   1562  C11 CER     1      51.681  37.136   8.973  1.00  0.00     0.000 C 
ATOM   1563  C11 CER     1      43.546 -50.744   8.921  1.00  0.00     0.000 C 
ATOM   1564  C11 CER     1      50.938 -44.481   8.921  1.00  0.00     0.000 C 
ATOM   1565  C11 CER     1     -50.123  43.714   8.938  1.00  0.00     0.000 C 
ATOM   1566  C11 CER     1     -48.688 -54.572   8.956  1.00  0.00     0.000 C 
ATOM   1567  C11 CER     1       2.126  -1.794  10.253  1.00  0.00     0.000 C 
ATOM   1568  C11 CER     1      -8.839   5.996  10.384  1.00  0.00     0.000 C 
ATOM   1569  C11 CER     1       7.232  -3.028  10.400  1.00  0.00     0.000 C 
ATOM   1570  C11 CER     1      -5.928   9.806  10.327  1.00  0.00     0.000 C 
ATOM   1571  C11 CER     1      12.092  11.117  10.401  1.00  0.00     0.000 C 
ATOM   1572  C11 CER     1     -15.493   7.082  10.460  1.00  0.00     0.000 C 
ATOM   1573  C11 CER     1      -8.529  21.267  10.392  1.00  0.00     0.000 C 
ATOM   1574  C11 CER     1      20.287  19.543  10.402  1.00  0.00     0.000 C 
ATOM   1575  C11 CER     1     -22.805   5.294  10.393  1.00  0.00     0.000 C 
ATOM   1576  C11 CER     1      -7.621 -26.506  10.388  1.00  0.00     0.000 C 
ATOM   1577  C11 CER     1      -5.889  28.044  10.420  1.00  0.00     0.000 C 
ATOM   1578  C11 CER     1     -13.465  26.976  10.216  1.00  0.00     0.000 C 
ATOM   1579  C11 CER     1       3.959 -31.950  10.603  1.00  0.00     0.000 C 
ATOM   1580  C11 CER     1     -26.269 -20.196  10.607  1.00  0.00     0.000 C 
ATOM   1581  C11 CER     1     -10.156 -30.984  10.388  1.00  0.00     0.000 C 
ATOM   1582  C11 CER     1      23.335 -24.185  10.275  1.00  0.00     0.000 C 
ATOM   1583  C11 CER     1      33.524  18.716  10.401  1.00  0.00     0.000 C 
ATOM   1584  C11 CER     1       1.280  36.226  10.400  1.00  0.00     0.000 C 
ATOM   1585  C11 CER     1      -2.673 -41.941  10.436  1.00  0.00     0.000 C 
ATOM   1586  C11 CER     1     -34.711 -14.227  10.400  1.00  0.00     0.000 C 
ATOM   1587  C11 CER     1      33.322 -27.686  10.401  1.00  0.00     0.000 C 
ATOM   1588  C11 CER     1      27.858  37.195  10.386  1.00  0.00     0.000 C 
ATOM   1589  C11 CER     1     -31.833  33.078  10.475  1.00  0.00     0.000 C 
ATOM   1590  C11 CER     1     -42.351  -1.563  10.399  1.00  0.00     0.000 C 
ATOM   1591  C11 CER     1      45.600   9.924  10.400  1.00  0.00     0.000 C 
ATOM   1592  C11 CER     1      34.416 -32.117  10.339  1.00  0.00     0.000 C 
ATOM   1593  C11 CER     1     -37.266  32.695  10.508  1.00  0.00     0.000 C 
ATOM   1594  C11 CER     1     -15.385  43.753  10.380  1.00  0.00     0.000 C 
ATOM   1595  C11 CER     1      -7.477  45.959  10.400  1.00  0.00     0.000 C 
ATOM   1596  C11 CER     1       8.530  47.057  10.407  1.00  0.00     0.000 C 
ATOM   1597  C11 CER     1     -30.906 -43.663  10.395  1.00  0.00     0.000 C 
ATOM   1598  C11 CER     1      39.366 -31.284  10.381  1.00  0.00     0.000 C 
ATOM   1599  C11 CER     1     -25.679 -47.395  10.350  1.00  0.00     0.000 C 
ATOM   1600  C11 CER     1       6.827 -53.505  10.401  1.00  0.00     0.000 C 
ATOM   1601  C11 CER     1      19.935 -48.150  10.386  1.00  0.00     0.000 C 
ATOM   1602  C11 CER     1      26.945  48.130  10.403  1.00  0.00     0.000 C 
ATOM   1603  C11 CER     1      33.594  36.789  10.389  1.00  0.00     0.000 C 
ATOM   1604  C11 CER     1     -46.763  19.504  10.410  1.00  0.00     0.000 C 
ATOM   1605  C11 CER     1     -35.210  41.936  10.401  1.00  0.00     0.000 C 
ATOM   1606  C11 CER     1     -51.041  -8.384  10.411  1.00  0.00     0.000 C 
ATOM   1607  C11 CER     1      31.605 -47.769  10.400  1.00  0.00     0.000 C 
ATOM   1608  C11 CER     1     -17.007 -49.506  10.290  1.00  0.00     0.000 C 
ATOM   1609  C11 CER     1     -45.193  28.029  10.519  1.00  0.00     0.000 C 
ATOM   1610  C11 CER     1      17.513  53.756  10.400  1.00  0.00     0.000 C 
ATOM   1611  C11 CER     1     -27.044  54.741  10.568  1.00  0.00     0.000 C 
ATOM   1612  C11 CER     1      52.092 -29.608  10.393  1.00  0.00     0.000 C 
ATOM   1613  C11 CER     1     -41.052 -46.718  10.336  1.00  0.00     0.000 C 
ATOM   1614  C11 CER     1     -30.451 -48.263  10.301  1.00  0.00     0.000 C 
ATOM   1615  C11 CER     1      35.773  45.766  10.382  1.00  0.00     0.000 C 
ATOM   1616  C11 CER     1      55.010  34.393  10.246  1.00  0.00     0.000 C 
ATOM   1617  C11 CER     1      39.764 -53.059  10.401  1.00  0.00     0.000 C 
ATOM   1618  C11 CER     1      50.225 -48.856  10.401  1.00  0.00     0.000 C 
ATOM   1619  C11 CER     1     -54.304  42.556  10.483  1.00  0.00     0.000 C 
ATOM   1620  C11 CER     1     -52.546 -56.407  10.400  1.00  0.00     0.000 C 
ATOM   1621  O11 CER     1      -1.014   2.337  20.508  1.00  0.00    -0.288 OA
ATOM   1622  O11 CER     1     -10.819   1.449  20.504  1.00  0.00    -0.288 OA
ATOM   1623  O11 CER     1      10.033  -7.603  20.484  1.00  0.00    -0.288 OA
ATOM   1624  O11 CER     1      -7.683  14.637  20.487  1.00  0.00    -0.288 OA
ATOM   1625  O11 CER     1      10.125  16.228  20.550  1.00  0.00    -0.288 OA
ATOM   1626  O11 CER     1     -16.929  11.748  20.505  1.00  0.00    -0.288 OA
ATOM   1627  O11 CER     1      -2.999  20.290  20.659  1.00  0.00    -0.288 OA
ATOM   1628  O11 CER     1      17.723  14.820  20.486  1.00  0.00    -0.288 OA
ATOM   1629  O11 CER     1     -27.325   8.015  20.514  1.00  0.00    -0.288 OA
ATOM   1630  O11 CER     1     -10.148 -21.849  20.486  1.00  0.00    -0.288 OA
ATOM   1631  O11 CER     1      -0.803  29.344  20.482  1.00  0.00    -0.288 OA
ATOM   1632  O11 CER     1     -11.810  31.584  20.492  1.00  0.00    -0.288 OA
ATOM   1633  O11 CER     1       6.983 -36.441  20.460  1.00  0.00    -0.288 OA
ATOM   1634  O11 CER     1     -28.347 -24.470  20.484  1.00  0.00    -0.288 OA
ATOM   1635  O11 CER     1     -12.239 -35.754  20.508  1.00  0.00    -0.288 OA
ATOM   1636  O11 CER     1      24.135 -28.686  20.473  1.00  0.00    -0.288 OA
ATOM   1637  O11 CER     1      29.629  22.403  20.472  1.00  0.00    -0.288 OA
ATOM   1638  O11 CER     1      -2.009  40.465  20.494  1.00  0.00    -0.288 OA
ATOM   1639  O11 CER     1      -2.113 -36.724  20.486  1.00  0.00    -0.288 OA
ATOM   1640  O11 CER     1     -39.614 -16.357  20.462  1.00  0.00    -0.288 OA
ATOM   1641  O11 CER     1      33.292 -22.332  20.478  1.00  0.00    -0.288 OA
ATOM   1642  O11 CER     1      23.781  33.727  20.742  1.00  0.00    -0.289 OA
ATOM   1643  O11 CER     1     -26.603  32.457  20.451  1.00  0.00    -0.288 OA
ATOM   1644  O11 CER     1     -44.621   3.310  20.481  1.00  0.00    -0.288 OA
ATOM   1645  O11 CER     1      45.731   4.574  20.511  1.00  0.00    -0.288 OA
ATOM   1646  O11 CER     1      31.339 -35.587  20.407  1.00  0.00     0.000 OA
ATOM   1647  O11 CER     1     -39.646  27.932  20.484  1.00  0.00    -0.288 OA
ATOM   1648  O11 CER     1     -18.552  48.024  20.532  1.00  0.00    -0.288 OA
ATOM   1649  O11 CER     1      -8.144  51.296  20.439  1.00  0.00    -0.288 OA
ATOM   1650  O11 CER     1      13.211  49.648  20.488  1.00  0.00    -0.288 OA
ATOM   1651  O11 CER     1     -30.294 -38.447  20.664  1.00  0.00    -0.288 OA
ATOM   1652  O11 CER     1      44.292 -29.944  20.508  1.00  0.00    -0.288 OA
ATOM   1653  O11 CER     1     -20.704 -46.524  20.511  1.00  0.00    -0.288 OA
ATOM   1654  O11 CER     1       2.324 -50.581  20.472  1.00  0.00    -0.288 OA
ATOM   1655  O11 CER     1      25.270 -47.838  20.522  1.00  0.00    -0.288 OA
ATOM   1656  O11 CER     1      26.723  42.765  20.487  1.00  0.00    -0.288 OA
ATOM   1657  O11 CER     1      37.547  40.332  20.522  1.00  0.00    -0.288 OA
ATOM   1658  O11 CER     1     -51.693  19.504  20.720  1.00  0.00    -0.288 OA
ATOM   1659  O11 CER     1     -39.375  38.525  20.501  1.00  0.00    -0.288 OA
ATOM   1660  O11 CER     1     -55.940  -6.671  20.453  1.00  0.00    -0.288 OA
ATOM   1661  O11 CER     1      31.879 -42.382  20.464  1.00  0.00    -0.288 OA
ATOM   1662  O11 CER     1     -15.370 -54.036  21.050  1.00  0.00    -0.288 OA
ATOM   1663  O11 CER     1     -50.253  29.121  20.494  1.00  0.00    -0.288 OA
ATOM   1664  O11 CER     1      22.760  52.966  20.539  1.00  0.00    -0.288 OA
ATOM   1665  O11 CER     1     -24.539  49.720  20.488  1.00  0.00    -0.288 OA
ATOM   1666  O11 CER     1      52.419 -24.162  20.511  1.00  0.00    -0.288 OA
ATOM   1667  O11 CER     1     -37.581 -42.642  20.505  1.00  0.00    -0.288 OA
ATOM   1668  O11 CER     1     -34.783 -50.607  20.481  1.00  0.00    -0.288 OA
ATOM   1669  O11 CER     1      39.708  49.528  20.487  1.00  0.00    -0.288 OA
ATOM   1670  O11 CER     1      49.684  35.052  20.634  1.00  0.00    -0.288 OA
ATOM   1671  O11 CER     1      41.897 -48.140  20.524  1.00  0.00    -0.288 OA
ATOM   1672  O11 CER     1      48.267 -44.455  20.999  1.00  0.00    -0.288 OA
ATOM   1673  O11 CER     1     -51.132  46.694  20.526  1.00  0.00    -0.288 OA
ATOM   1674  O11 CER     1     -49.926 -51.724  20.487  1.00  0.00    -0.288 OA
ATOM   1675  C12 CER     1      -1.690   5.420  23.839  1.00  0.00     0.181 C 
ATOM   1676  C12 CER     1     -13.124  -0.668  23.855  1.00  0.00     0.181 C 
ATOM   1677  C12 CER     1      10.517 -10.711  23.859  1.00  0.00     0.181 C 
ATOM   1678  C12 CER     1      -7.358  17.751  23.861  1.00  0.00     0.181 C 
ATOM   1679  C12 CER     1      10.060  19.215  23.834  1.00  0.00     0.181 C 
ATOM   1680  C12 CER     1     -16.363  14.827  23.859  1.00  0.00     0.181 C 
ATOM   1681  C12 CER     1      -0.564  18.689  23.866  1.00  0.00     0.181 C 
ATOM   1682  C12 CER     1      15.240  12.902  23.840  1.00  0.00     0.181 C 
ATOM   1683  C12 CER     1     -29.220  10.511  23.858  1.00  0.00     0.181 C 
ATOM   1684  C12 CER     1     -10.317 -18.689  23.834  1.00  0.00     0.181 C 
ATOM   1685  C12 CER     1       2.295  28.869  23.868  1.00  0.00     0.181 C 
ATOM   1686  C12 CER     1      -9.552  33.749  23.892  1.00  0.00     0.181 C 
ATOM   1687  C12 CER     1       7.288 -39.593  23.845  1.00  0.00     0.181 C 
ATOM   1688  C12 CER     1     -30.637 -26.578  23.868  1.00  0.00     0.181 C 
ATOM   1689  C12 CER     1     -14.488 -37.958  23.846  1.00  0.00     0.181 C 
ATOM   1690  C12 CER     1      23.570 -31.740  23.858  1.00  0.00     0.181 C 
ATOM   1691  C12 CER     1      28.433  25.321  23.868  1.00  0.00     0.181 C 
ATOM   1692  C12 CER     1      -2.825  43.522  23.819  1.00  0.00     0.181 C 
ATOM   1693  C12 CER     1      -0.497 -33.994  23.838  1.00  0.00     0.181 C 
ATOM   1694  C12 CER     1     -42.740 -16.499  23.834  1.00  0.00     0.181 C 
ATOM   1695  C12 CER     1      34.502 -19.464  23.848  1.00  0.00     0.181 C 
ATOM   1696  C12 CER     1      20.875  32.692  23.858  1.00  0.00     0.181 C 
ATOM   1697  C12 CER     1     -23.863  30.949  23.829  1.00  0.00     0.181 C 
ATOM   1698  C12 CER     1     -44.721   6.443  23.845  1.00  0.00     0.181 C 
ATOM   1699  C12 CER     1      44.570   1.650  23.882  1.00  0.00     0.181 C 
ATOM   1700  C12 CER     1      28.369 -38.157  24.252  1.00  0.00     0.180 C 
ATOM   1701  C12 CER     1     -42.057  25.917  23.820  1.00  0.00     0.181 C 
ATOM   1702  C12 CER     1     -19.454  51.003  23.856  1.00  0.00     0.181 C 
ATOM   1703  C12 CER     1      -7.417  54.136  23.821  1.00  0.00     0.181 C 
ATOM   1704  C12 CER     1      16.351  49.998  23.846  1.00  0.00     0.181 C 
ATOM   1705  C12 CER     1     -29.017 -35.629  23.904  1.00  0.00     0.181 C 
ATOM   1706  C12 CER     1      47.412 -30.376  23.853  1.00  0.00     0.181 C 
ATOM   1707  C12 CER     1     -17.630 -47.239  23.844  1.00  0.00     0.181 C 
ATOM   1708  C12 CER     1       0.568 -47.988  23.873  1.00  0.00     0.181 C 
ATOM   1709  C12 CER     1      28.235 -48.893  23.860  1.00  0.00     0.181 C 
ATOM   1710  C12 CER     1      25.442  39.915  23.849  1.00  0.00     0.181 C 
ATOM   1711  C12 CER     1      40.502  41.399  23.865  1.00  0.00     0.181 C 
ATOM   1712  C12 CER     1     -54.938  20.087  23.888  1.00  0.00     0.181 C 
ATOM   1713  C12 CER     1     -42.398  37.681  23.849  1.00  0.00     0.181 C 
ATOM   1714  C12 CER     1     -58.308  -4.278  23.829  1.00  0.00     0.181 C 
ATOM   1715  C12 CER     1      33.074 -39.567  23.943  1.00  0.00     0.179 C 
ATOM   1716  C12 CER     1     -14.733 -57.333  23.893  1.00  0.00     0.181 C 
ATOM   1717  C12 CER     1     -52.569  31.156  23.796  1.00  0.00     0.181 C 
ATOM   1718  C12 CER     1      25.576  51.601  23.857  1.00  0.00     0.181 C 
ATOM   1719  C12 CER     1     -23.815  46.705  23.836  1.00  0.00     0.181 C 
ATOM   1720  C12 CER     1      53.431 -21.381  23.851  1.00  0.00     0.181 C 
ATOM   1721  C12 CER     1     -35.000 -40.973  23.868  1.00  0.00     0.181 C 
ATOM   1722  C12 CER     1     -37.962 -50.775  23.776  1.00  0.00     0.181 C 
ATOM   1723  C12 CER     1      42.666  50.618  23.844  1.00  0.00     0.181 C 
ATOM   1724  C12 CER     1      47.097  36.306  23.883  1.00  0.00     0.181 C 
ATOM   1725  C12 CER     1      44.129 -45.947  23.863  1.00  0.00     0.181 C 
ATOM   1726  C12 CER     1      47.694 -40.881  23.855  1.00  0.00     0.181 C 
ATOM   1727  C12 CER     1     -48.379  48.239  23.881  1.00  0.00     0.181 C 
ATOM   1728  C12 CER     1     -47.519 -49.744  23.861  1.00  0.00     0.181 C 
ATOM   1729  C12 CER     1       1.537   3.393   7.937  1.00  0.00     0.000 C 
ATOM   1730  C12 CER     1     -12.955   3.130   7.947  1.00  0.00     0.000 C 
ATOM   1731  C12 CER     1       7.412  -8.511   7.977  1.00  0.00     0.000 C 
ATOM   1732  C12 CER     1      -4.929  14.726   7.924  1.00  0.00     0.000 C 
ATOM   1733  C12 CER     1      12.536  16.550   7.911  1.00  0.00     0.000 C 
ATOM   1734  C12 CER     1     -14.120  11.768   7.937  1.00  0.00     0.000 C 
ATOM   1735  C12 CER     1      -4.189  17.987   7.836  1.00  0.00     0.000 C 
ATOM   1736  C12 CER     1      15.855  16.625   7.962  1.00  0.00     0.000 C 
ATOM   1737  C12 CER     1     -25.453  10.058   7.936  1.00  0.00     0.000 C 
ATOM   1738  C12 CER     1      -7.397 -21.133   7.937  1.00  0.00     0.000 C 
ATOM   1739  C12 CER     1      -0.731  26.560   7.936  1.00  0.00     0.000 C 
ATOM   1740  C12 CER     1      -9.631  30.010   7.909  1.00  0.00     0.000 C 
ATOM   1741  C12 CER     1       4.647 -37.034   8.076  1.00  0.00     0.000 C 
ATOM   1742  C12 CER     1     -30.551 -22.836   7.931  1.00  0.00     0.000 C 
ATOM   1743  C12 CER     1     -14.487 -34.154   7.937  1.00  0.00     0.000 C 
ATOM   1744  C12 CER     1      21.369 -28.658   7.936  1.00  0.00     0.000 C 
ATOM   1745  C12 CER     1      31.940  23.980   7.913  1.00  0.00     0.000 C 
ATOM   1746  C12 CER     1       0.544  41.683   7.936  1.00  0.00     0.000 C 
ATOM   1747  C12 CER     1      -0.156 -37.754   8.215  1.00  0.00     0.000 C 
ATOM   1748  C12 CER     1     -40.192 -13.682   7.936  1.00  0.00     0.000 C 
ATOM   1749  C12 CER     1      36.082 -22.916   7.945  1.00  0.00     0.000 C 
ATOM   1750  C12 CER     1      22.602  36.048   7.931  1.00  0.00     0.000 C 
ATOM   1751  C12 CER     1     -27.491  29.790   7.938  1.00  0.00     0.000 C 
ATOM   1752  C12 CER     1     -42.486   3.827   7.983  1.00  0.00     0.000 C 
ATOM   1753  C12 CER     1      42.979   5.078   7.938  1.00  0.00     0.000 C 
ATOM   1754  C12 CER     1      29.572 -34.141   7.938  1.00  0.00     0.000 C 
ATOM   1755  C12 CER     1     -41.743  29.724   7.942  1.00  0.00     0.000 C 
ATOM   1756  C12 CER     1     -16.144  49.176   7.934  1.00  0.00     0.000 C 
ATOM   1757  C12 CER     1      -5.518  51.402   8.041  1.00  0.00     0.000 C 
ATOM   1758  C12 CER     1      14.049  46.987   7.938  1.00  0.00     0.000 C 
ATOM   1759  C12 CER     1     -27.788 -39.156   7.938  1.00  0.00     0.000 C 
ATOM   1760  C12 CER     1      44.434 -32.726   7.937  1.00  0.00     0.000 C 
ATOM   1761  C12 CER     1     -20.880 -49.322   7.941  1.00  0.00     0.000 C 
ATOM   1762  C12 CER     1       4.306 -48.608   7.937  1.00  0.00     0.000 C 
ATOM   1763  C12 CER     1      24.841 -50.584   7.937  1.00  0.00     0.000 C 
ATOM   1764  C12 CER     1      24.060  43.459   7.937  1.00  0.00     0.000 C 
ATOM   1765  C12 CER     1      38.901  37.939   7.938  1.00  0.00     0.000 C 
ATOM   1766  C12 CER     1     -51.596  22.031   7.936  1.00  0.00     0.000 C 
ATOM   1767  C12 CER     1     -40.118  40.386   7.896  1.00  0.00     0.000 C 
ATOM   1768  C12 CER     1     -54.450  -4.309   7.936  1.00  0.00     0.000 C 
ATOM   1769  C12 CER     1      34.377 -43.038   7.974  1.00  0.00     0.000 C 
ATOM   1770  C12 CER     1     -17.677 -54.884   7.936  1.00  0.00     0.000 C 
ATOM   1771  C12 CER     1     -49.004  31.718   7.937  1.00  0.00     0.000 C 
ATOM   1772  C12 CER     1      21.942  50.478   7.937  1.00  0.00     0.000 C 
ATOM   1773  C12 CER     1     -26.596  48.305   7.655  1.00  0.00     0.000 C 
ATOM   1774  C12 CER     1      55.043 -24.988   7.937  1.00  0.00     0.000 C 
ATOM   1775  C12 CER     1     -35.896 -44.607   7.946  1.00  0.00     0.000 C 
ATOM   1776  C12 CER     1     -35.465 -48.078   7.863  1.00  0.00     0.000 C 
ATOM   1777  C12 CER     1      41.134  47.401   7.506  1.00  0.00    -0.004 C 
ATOM   1778  C12 CER     1      50.519  37.302   7.955  1.00  0.00     0.000 C 
ATOM   1779  C12 CER     1      44.159 -49.737   7.937  1.00  0.00     0.000 C 
ATOM   1780  C12 CER     1      50.576 -43.359   7.937  1.00  0.00     0.000 C 
ATOM   1781  C12 CER     1     -49.312  44.530   7.940  1.00  0.00     0.000 C 
ATOM   1782  C12 CER     1     -48.118 -53.703   7.866  1.00  0.00     0.000 C 
ATOM   1783  C12 CER     1       2.235  -1.980   8.764  1.00  0.00     0.000 C 
ATOM   1784  C12 CER     1      -8.727   6.288   8.880  1.00  0.00     0.000 C 
ATOM   1785  C12 CER     1       7.064  -2.978   8.873  1.00  0.00     0.000 C 
ATOM   1786  C12 CER     1      -5.856   9.548   8.816  1.00  0.00     0.000 C 
ATOM   1787  C12 CER     1      12.243  11.036   8.876  1.00  0.00     0.000 C 
ATOM   1788  C12 CER     1     -15.401   6.723   8.944  1.00  0.00     0.000 C 
ATOM   1789  C12 CER     1      -8.673  21.170   8.869  1.00  0.00     0.000 C 
ATOM   1790  C12 CER     1      20.247  19.734   8.881  1.00  0.00     0.000 C 
ATOM   1791  C12 CER     1     -22.607   5.324   8.874  1.00  0.00     0.000 C 
ATOM   1792  C12 CER     1      -7.510 -26.660   8.863  1.00  0.00     0.000 C 
ATOM   1793  C12 CER     1      -6.099  27.941   8.892  1.00  0.00     0.000 C 
ATOM   1794  C12 CER     1     -13.701  26.594   8.760  1.00  0.00     0.000 C 
ATOM   1795  C12 CER     1       3.473 -31.971   9.187  1.00  0.00     0.000 C 
ATOM   1796  C12 CER     1     -26.359 -20.022   9.140  1.00  0.00     0.000 C 
ATOM   1797  C12 CER     1     -10.143 -30.733   8.874  1.00  0.00     0.000 C 
ATOM   1798  C12 CER     1      23.137 -24.111   8.683  1.00  0.00     0.000 C 
ATOM   1799  C12 CER     1      33.698  18.710   8.874  1.00  0.00     0.000 C 
ATOM   1800  C12 CER     1       1.452  36.194   8.874  1.00  0.00     0.000 C 
ATOM   1801  C12 CER     1      -2.308 -42.170   9.010  1.00  0.00     0.000 C 
ATOM   1802  C12 CER     1     -34.640 -14.067   8.874  1.00  0.00     0.000 C 
ATOM   1803  C12 CER     1      33.437 -27.829   8.880  1.00  0.00     0.000 C 
ATOM   1804  C12 CER     1      27.946  37.353   8.864  1.00  0.00     0.000 C 
ATOM   1805  C12 CER     1     -32.011  33.109   8.975  1.00  0.00     0.000 C 
ATOM   1806  C12 CER     1     -42.191  -1.632   8.872  1.00  0.00     0.000 C 
ATOM   1807  C12 CER     1      45.480  10.050   8.873  1.00  0.00     0.000 C 
ATOM   1808  C12 CER     1      34.570 -31.887   8.833  1.00  0.00     0.000 C 
ATOM   1809  C12 CER     1     -37.443  33.032   9.069  1.00  0.00     0.000 C 
ATOM   1810  C12 CER     1     -15.190  43.704   8.864  1.00  0.00     0.000 C 
ATOM   1811  C12 CER     1      -7.453  45.723   8.885  1.00  0.00     0.000 C 
ATOM   1812  C12 CER     1       8.441  46.940   8.880  1.00  0.00     0.000 C 
ATOM   1813  C12 CER     1     -30.796 -43.832   8.874  1.00  0.00     0.000 C 
ATOM   1814  C12 CER     1      39.076 -31.433   8.876  1.00  0.00     0.000 C 
ATOM   1815  C12 CER     1     -26.028 -47.558   8.860  1.00  0.00     0.000 C 
ATOM   1816  C12 CER     1       6.999 -53.478   8.874  1.00  0.00     0.000 C 
ATOM   1817  C12 CER     1      19.799 -48.252   8.864  1.00  0.00     0.000 C 
ATOM   1818  C12 CER     1      26.840  48.272   8.875  1.00  0.00     0.000 C 
ATOM   1819  C12 CER     1      33.508  36.628   8.865  1.00  0.00     0.000 C 
ATOM   1820  C12 CER     1     -46.658  19.837   8.904  1.00  0.00     0.000 C 
ATOM   1821  C12 CER     1     -35.180  42.108   8.874  1.00  0.00     0.000 C 
ATOM   1822  C12 CER     1     -50.782  -8.431   8.897  1.00  0.00     0.000 C 
ATOM   1823  C12 CER     1      31.719 -47.901   8.873  1.00  0.00     0.000 C 
ATOM   1824  C12 CER     1     -17.445 -49.385   8.824  1.00  0.00     0.000 C 
ATOM   1825  C12 CER     1     -44.824  28.168   9.110  1.00  0.00     0.000 C 
ATOM   1826  C12 CER     1      17.370  53.657   8.874  1.00  0.00     0.000 C 
ATOM   1827  C12 CER     1     -27.093  55.175   9.071  1.00  0.00     0.000 C 
ATOM   1828  C12 CER     1      52.211 -29.770   8.871  1.00  0.00     0.000 C 
ATOM   1829  C12 CER     1     -40.839 -46.984   8.856  1.00  0.00     0.000 C 
ATOM   1830  C12 CER     1     -30.123 -47.978   8.835  1.00  0.00     0.000 C 
ATOM   1831  C12 CER     1      35.766  45.656   8.854  1.00  0.00     0.000 C 
ATOM   1832  C12 CER     1      55.302  34.566   8.786  1.00  0.00     0.000 C 
ATOM   1833  C12 CER     1      39.820 -53.225   8.874  1.00  0.00     0.000 C 
ATOM   1834  C12 CER     1      50.387 -48.922   8.875  1.00  0.00     0.000 C 
ATOM   1835  C12 CER     1     -54.242  42.463   8.973  1.00  0.00     0.000 C 
ATOM   1836  C12 CER     1     -52.507 -56.576   8.874  1.00  0.00     0.000 C 
ATOM   1837  O12 CER     1      -1.085   4.451  21.732  1.00  0.00    -0.279 OA
ATOM   1838  O12 CER     1     -12.623   0.355  21.771  1.00  0.00    -0.279 OA
ATOM   1839  O12 CER     1       9.869  -9.766  21.780  1.00  0.00    -0.279 OA
ATOM   1840  O12 CER     1      -7.014  16.609  21.858  1.00  0.00    -0.279 OA
ATOM   1841  O12 CER     1      10.525  18.175  21.782  1.00  0.00    -0.279 OA
ATOM   1842  O12 CER     1     -16.091  13.704  21.784  1.00  0.00    -0.279 OA
ATOM   1843  O12 CER     1      -1.640  18.869  21.814  1.00  0.00    -0.279 OA
ATOM   1844  O12 CER     1      15.787  13.915  21.766  1.00  0.00    -0.279 OA
ATOM   1845  O12 CER     1     -28.233   9.953  21.780  1.00  0.00    -0.279 OA
ATOM   1846  O12 CER     1      -9.788 -19.727  21.783  1.00  0.00    -0.279 OA
ATOM   1847  O12 CER     1       1.200  28.586  21.780  1.00  0.00    -0.279 OA
ATOM   1848  O12 CER     1      -9.980  32.644  21.772  1.00  0.00    -0.279 OA
ATOM   1849  O12 CER     1       6.728 -38.585  21.760  1.00  0.00    -0.279 OA
ATOM   1850  O12 CER     1     -30.187 -25.559  21.776  1.00  0.00    -0.279 OA
ATOM   1851  O12 CER     1     -14.056 -36.889  21.726  1.00  0.00    -0.279 OA
ATOM   1852  O12 CER     1      23.318 -30.635  21.753  1.00  0.00    -0.279 OA
ATOM   1853  O12 CER     1      29.285  24.528  21.749  1.00  0.00    -0.279 OA
ATOM   1854  O12 CER     1      -2.089  42.631  21.735  1.00  0.00    -0.279 OA
ATOM   1855  O12 CER     1      -0.646 -35.114  21.723  1.00  0.00    -0.279 OA
ATOM   1856  O12 CER     1     -41.711 -16.022  21.722  1.00  0.00    -0.279 OA
ATOM   1857  O12 CER     1      34.564 -20.618  21.748  1.00  0.00    -0.279 OA
ATOM   1858  O12 CER     1      21.719  33.441  21.793  1.00  0.00    -0.279 OA
ATOM   1859  O12 CER     1     -24.993  31.045  21.712  1.00  0.00    -0.279 OA
ATOM   1860  O12 CER     1     -44.221   5.429  21.733  1.00  0.00    -0.279 OA
ATOM   1861  O12 CER     1      44.529   2.853  21.821  1.00  0.00    -0.279 OA
ATOM   1862  O12 CER     1      28.976 -36.764  21.648  1.00  0.00    -0.293 OA
ATOM   1863  O12 CER     1     -41.532  26.938  21.734  1.00  0.00    -0.279 OA
ATOM   1864  O12 CER     1     -18.607  50.212  21.762  1.00  0.00    -0.279 OA
ATOM   1865  O12 CER     1      -7.194  53.125  21.837  1.00  0.00    -0.279 OA
ATOM   1866  O12 CER     1      15.378  49.392  21.728  1.00  0.00    -0.279 OA
ATOM   1867  O12 CER     1     -29.048 -36.758  21.836  1.00  0.00    -0.279 OA
ATOM   1868  O12 CER     1      46.283 -30.684  21.752  1.00  0.00    -0.279 OA
ATOM   1869  O12 CER     1     -18.786 -47.491  21.799  1.00  0.00    -0.279 OA
ATOM   1870  O12 CER     1       1.537 -48.585  21.751  1.00  0.00    -0.279 OA
ATOM   1871  O12 CER     1      27.077 -48.980  21.751  1.00  0.00    -0.279 OA
ATOM   1872  O12 CER     1      25.484  41.069  21.753  1.00  0.00    -0.279 OA
ATOM   1873  O12 CER     1      39.615  40.557  21.866  1.00  0.00    -0.279 OA
ATOM   1874  O12 CER     1     -53.555  20.519  22.151  1.00  0.00    -0.279 OA
ATOM   1875  O12 CER     1     -41.486  38.407  21.810  1.00  0.00    -0.279 OA
ATOM   1876  O12 CER     1     -57.345  -4.920  21.751  1.00  0.00    -0.279 OA
ATOM   1877  O12 CER     1      33.189 -40.738  21.900  1.00  0.00    -0.281 OA
ATOM   1878  O12 CER     1     -15.484 -55.930  22.167  1.00  0.00    -0.279 OA
ATOM   1879  O12 CER     1     -51.526  30.786  21.792  1.00  0.00    -0.279 OA
ATOM   1880  O12 CER     1      24.445  51.486  21.770  1.00  0.00    -0.279 OA
ATOM   1881  O12 CER     1     -24.688  47.479  21.732  1.00  0.00    -0.279 OA
ATOM   1882  O12 CER     1      53.449 -22.550  21.790  1.00  0.00    -0.279 OA
ATOM   1883  O12 CER     1     -35.665 -42.007  21.863  1.00  0.00    -0.279 OA
ATOM   1884  O12 CER     1     -36.925 -50.160  21.596  1.00  0.00    -0.279 OA
ATOM   1885  O12 CER     1      41.777  49.821  21.833  1.00  0.00    -0.279 OA
ATOM   1886  O12 CER     1      48.215  36.253  21.825  1.00  0.00    -0.279 OA
ATOM   1887  O12 CER     1      43.729 -47.028  21.806  1.00  0.00    -0.279 OA
ATOM   1888  O12 CER     1      48.298 -41.965  21.747  1.00  0.00    -0.279 OA
ATOM   1889  O12 CER     1     -49.268  47.496  21.757  1.00  0.00    -0.279 OA
ATOM   1890  O12 CER     1     -48.041 -50.744  21.740  1.00  0.00    -0.279 OA
ATOM   1891  C13 CER     1      -2.531   6.466  24.476  1.00  0.00     0.180 C 
ATOM   1892  C13 CER     1     -13.592  -1.919  24.499  1.00  0.00     0.180 C 
ATOM   1893  C13 CER     1      11.306 -11.787  24.515  1.00  0.00     0.180 C 
ATOM   1894  C13 CER     1      -7.841  18.999  24.511  1.00  0.00     0.180 C 
ATOM   1895  C13 CER     1       9.496  20.410  24.494  1.00  0.00     0.180 C 
ATOM   1896  C13 CER     1     -16.736  16.110  24.522  1.00  0.00     0.180 C 
ATOM   1897  C13 CER     1       0.763  18.569  24.502  1.00  0.00     0.180 C 
ATOM   1898  C13 CER     1      14.656  11.699  24.489  1.00  0.00     0.180 C 
ATOM   1899  C13 CER     1     -30.403  11.128  24.502  1.00  0.00     0.180 C 
ATOM   1900  C13 CER     1     -10.995 -17.543  24.481  1.00  0.00     0.180 C 
ATOM   1901  C13 CER     1       3.591  29.242  24.500  1.00  0.00     0.180 C 
ATOM   1902  C13 CER     1      -9.064  34.994  24.564  1.00  0.00     0.180 C 
ATOM   1903  C13 CER     1       8.019 -40.691  24.516  1.00  0.00     0.180 C 
ATOM   1904  C13 CER     1     -31.107 -27.804  24.508  1.00  0.00     0.180 C 
ATOM   1905  C13 CER     1     -14.942 -39.224  24.482  1.00  0.00     0.180 C 
ATOM   1906  C13 CER     1      23.930 -33.030  24.504  1.00  0.00     0.180 C 
ATOM   1907  C13 CER     1      27.394  26.154  24.537  1.00  0.00     0.180 C 
ATOM   1908  C13 CER     1      -3.680  44.536  24.479  1.00  0.00     0.180 C 
ATOM   1909  C13 CER     1      -0.436 -32.671  24.511  1.00  0.00     0.180 C 
ATOM   1910  C13 CER     1     -43.925 -17.120  24.487  1.00  0.00     0.180 C 
ATOM   1911  C13 CER     1      34.414 -18.150  24.508  1.00  0.00     0.180 C 
ATOM   1912  C13 CER     1      19.914  31.778  24.510  1.00  0.00     0.180 C 
ATOM   1913  C13 CER     1     -22.528  30.881  24.492  1.00  0.00     0.180 C 
ATOM   1914  C13 CER     1     -45.364   7.610  24.506  1.00  0.00     0.180 C 
ATOM   1915  C13 CER     1      44.718   0.326  24.504  1.00  0.00     0.180 C 
ATOM   1916  C13 CER     1      27.452 -39.203  24.498  1.00  0.00     0.180 C 
ATOM   1917  C13 CER     1     -42.557  24.708  24.497  1.00  0.00     0.180 C 
ATOM   1918  C13 CER     1     -20.348  51.985  24.515  1.00  0.00     0.180 C 
ATOM   1919  C13 CER     1      -7.726  55.382  24.415  1.00  0.00     0.180 C 
ATOM   1920  C13 CER     1      17.455  50.742  24.497  1.00  0.00     0.180 C 
ATOM   1921  C13 CER     1     -29.030 -34.316  24.537  1.00  0.00     0.180 C 
ATOM   1922  C13 CER     1      48.676 -29.944  24.516  1.00  0.00     0.180 C 
ATOM   1923  C13 CER     1     -16.325 -46.926  24.487  1.00  0.00     0.180 C 
ATOM   1924  C13 CER     1      -0.608 -47.317  24.496  1.00  0.00     0.180 C 
ATOM   1925  C13 CER     1      29.559 -48.732  24.529  1.00  0.00     0.180 C 
ATOM   1926  C13 CER     1      25.578  38.603  24.529  1.00  0.00     0.180 C 
ATOM   1927  C13 CER     1      41.441  42.342  24.511  1.00  0.00     0.180 C 
ATOM   1928  C13 CER     1     -56.327  19.848  24.434  1.00  0.00     0.180 C 
ATOM   1929  C13 CER     1     -43.378  36.768  24.494  1.00  0.00     0.180 C 
ATOM   1930  C13 CER     1     -59.629  -3.913  24.456  1.00  0.00     0.180 C 
ATOM   1931  C13 CER     1      33.074 -38.252  24.641  1.00  0.00     0.178 C 
ATOM   1932  C13 CER     1     -14.234 -58.614  24.449  1.00  0.00     0.180 C 
ATOM   1933  C13 CER     1     -53.774  31.710  24.483  1.00  0.00     0.180 C 
ATOM   1934  C13 CER     1      26.880  51.559  24.563  1.00  0.00     0.180 C 
ATOM   1935  C13 CER     1     -23.027  45.626  24.492  1.00  0.00     0.180 C 
ATOM   1936  C13 CER     1      53.479 -20.101  24.522  1.00  0.00     0.180 C 
ATOM   1937  C13 CER     1     -34.294 -39.829  24.505  1.00  0.00     0.180 C 
ATOM   1938  C13 CER     1     -39.151 -51.462  24.382  1.00  0.00     0.180 C 
ATOM   1939  C13 CER     1      43.567  51.604  24.494  1.00  0.00     0.180 C 
ATOM   1940  C13 CER     1      45.789  36.318  24.558  1.00  0.00     0.180 C 
ATOM   1941  C13 CER     1      44.555 -44.692  24.526  1.00  0.00     0.180 C 
ATOM   1942  C13 CER     1      47.039 -39.707  24.494  1.00  0.00     0.180 C 
ATOM   1943  C13 CER     1     -47.595  49.338  24.509  1.00  0.00     0.180 C 
ATOM   1944  C13 CER     1     -46.947 -48.535  24.521  1.00  0.00     0.180 C 
ATOM   1945  C13 CER     1       1.278   2.786   6.546  1.00  0.00     0.000 C 
ATOM   1946  C13 CER     1     -12.097   3.291   6.662  1.00  0.00     0.000 C 
ATOM   1947  C13 CER     1       7.681  -7.886   6.628  1.00  0.00     0.000 C 
ATOM   1948  C13 CER     1      -5.417  14.250   6.546  1.00  0.00     0.000 C 
ATOM   1949  C13 CER     1      12.348  15.994   6.518  1.00  0.00     0.000 C 
ATOM   1950  C13 CER     1     -14.590  11.304   6.546  1.00  0.00     0.000 C 
ATOM   1951  C13 CER     1      -4.465  18.493   6.470  1.00  0.00     0.000 C 
ATOM   1952  C13 CER     1      16.397  16.699   6.528  1.00  0.00     0.000 C 
ATOM   1953  C13 CER     1     -25.434   9.399   6.545  1.00  0.00     0.000 C 
ATOM   1954  C13 CER     1      -7.738 -21.698   6.546  1.00  0.00     0.000 C 
ATOM   1955  C13 CER     1      -1.204  27.020   6.546  1.00  0.00     0.000 C 
ATOM   1956  C13 CER     1     -10.227  29.905   6.520  1.00  0.00     0.000 C 
ATOM   1957  C13 CER     1       4.770 -36.642   6.572  1.00  0.00     0.000 C 
ATOM   1958  C13 CER     1     -29.869 -22.751   6.546  1.00  0.00     0.000 C 
ATOM   1959  C13 CER     1     -13.836 -34.055   6.546  1.00  0.00     0.000 C 
ATOM   1960  C13 CER     1      21.850 -28.194   6.549  1.00  0.00     0.000 C 
ATOM   1961  C13 CER     1      31.818  23.348   6.529  1.00  0.00     0.000 C 
ATOM   1962  C13 CER     1       0.314  41.065   6.545  1.00  0.00     0.000 C 
ATOM   1963  C13 CER     1      -0.842 -37.510   6.679  1.00  0.00     0.000 C 
ATOM   1964  C13 CER     1     -39.644 -14.049   6.546  1.00  0.00     0.000 C 
ATOM   1965  C13 CER     1      35.572 -23.271   6.544  1.00  0.00     0.000 C 
ATOM   1966  C13 CER     1      23.204  35.898   6.530  1.00  0.00     0.000 C 
ATOM   1967  C13 CER     1     -27.781  30.374   6.545  1.00  0.00     0.000 C 
ATOM   1968  C13 CER     1     -42.583   3.263   6.559  1.00  0.00     0.000 C 
ATOM   1969  C13 CER     1      43.530   5.442   6.549  1.00  0.00     0.000 C 
ATOM   1970  C13 CER     1      30.229 -34.205   6.547  1.00  0.00     0.000 C 
ATOM   1971  C13 CER     1     -40.993  29.784   6.597  1.00  0.00     0.000 C 
ATOM   1972  C13 CER     1     -16.370  48.551   6.546  1.00  0.00     0.000 C 
ATOM   1973  C13 CER     1      -6.057  51.096   6.636  1.00  0.00     0.000 C 
ATOM   1974  C13 CER     1      13.470  47.300   6.547  1.00  0.00     0.000 C 
ATOM   1975  C13 CER     1     -28.372 -39.460   6.547  1.00  0.00     0.000 C 
ATOM   1976  C13 CER     1      43.951 -32.276   6.547  1.00  0.00     0.000 C 
ATOM   1977  C13 CER     1     -21.412 -48.805   6.597  1.00  0.00     0.000 C 
ATOM   1978  C13 CER     1       4.296 -49.267   6.545  1.00  0.00     0.000 C 
ATOM   1979  C13 CER     1      24.460 -50.046   6.546  1.00  0.00     0.000 C 
ATOM   1980  C13 CER     1      24.643  43.793   6.552  1.00  0.00     0.000 C 
ATOM   1981  C13 CER     1      38.266  38.122   6.549  1.00  0.00     0.000 C 
ATOM   1982  C13 CER     1     -51.184  21.515   6.545  1.00  0.00     0.000 C 
ATOM   1983  C13 CER     1     -39.639  40.329   6.458  1.00  0.00     0.000 C 
ATOM   1984  C13 CER     1     -54.311  -4.954   6.546  1.00  0.00     0.000 C 
ATOM   1985  C13 CER     1      33.815 -43.390   6.616  1.00  0.00     0.000 C 
ATOM   1986  C13 CER     1     -17.342 -54.309   6.549  1.00  0.00     0.000 C 
ATOM   1987  C13 CER     1     -48.794  31.093   6.546  1.00  0.00     0.000 C 
ATOM   1988  C13 CER     1      21.658  51.074   6.547  1.00  0.00     0.000 C 
ATOM   1989  C13 CER     1     -26.545  49.250   6.403  1.00  0.00     0.000 C 
ATOM   1990  C13 CER     1      54.471 -25.315   6.545  1.00  0.00     0.000 C 
ATOM   1991  C13 CER     1     -36.501 -44.616   6.540  1.00  0.00     0.000 C 
ATOM   1992  C13 CER     1     -34.955 -48.329   6.469  1.00  0.00     0.000 C 
ATOM   1993  C13 CER     1      40.483  47.452   6.236  1.00  0.00    -0.000 C 
ATOM   1994  C13 CER     1      50.943  36.845   6.550  1.00  0.00     0.000 C 
ATOM   1995  C13 CER     1      43.508 -49.841   6.546  1.00  0.00     0.000 C 
ATOM   1996  C13 CER     1      50.230 -43.920   6.545  1.00  0.00     0.000 C 
ATOM   1997  C13 CER     1     -49.987  44.605   6.562  1.00  0.00     0.000 C 
ATOM   1998  C13 CER     1     -48.755 -53.778   6.489  1.00  0.00     0.000 C 
ATOM   1999  C13 CER     1       1.003  -2.437   7.971  1.00  0.00     0.000 C 
ATOM   2000  C13 CER     1      -7.632   5.608   8.027  1.00  0.00     0.000 C 
ATOM   2001  C13 CER     1       8.270  -2.571   8.006  1.00  0.00     0.000 C 
ATOM   2002  C13 CER     1      -7.140   9.509   7.979  1.00  0.00     0.000 C 
ATOM   2003  C13 CER     1      10.981  10.824   8.022  1.00  0.00     0.000 C 
ATOM   2004  C13 CER     1     -16.658   6.959   8.084  1.00  0.00     0.000 C 
ATOM   2005  C13 CER     1      -8.188  22.347   8.005  1.00  0.00     0.000 C 
ATOM   2006  C13 CER     1      21.205  18.901   8.025  1.00  0.00     0.000 C 
ATOM   2007  C13 CER     1     -23.446   4.381   8.001  1.00  0.00     0.000 C 
ATOM   2008  C13 CER     1      -8.761 -26.983   8.016  1.00  0.00     0.000 C 
ATOM   2009  C13 CER     1      -6.081  29.213   8.021  1.00  0.00     0.000 C 
ATOM   2010  C13 CER     1     -14.801  27.309   7.971  1.00  0.00     0.000 C 
ATOM   2011  C13 CER     1       4.303 -31.184   8.427  1.00  0.00     0.000 C 
ATOM   2012  C13 CER     1     -25.264 -20.771   8.530  1.00  0.00     0.000 C 
ATOM   2013  C13 CER     1      -9.100 -31.464   8.012  1.00  0.00     0.000 C 
ATOM   2014  C13 CER     1      24.312 -23.739   7.748  1.00  0.00     0.000 C 
ATOM   2015  C13 CER     1      32.636  18.012   8.007  1.00  0.00     0.000 C 
ATOM   2016  C13 CER     1       0.295  35.666   8.006  1.00  0.00     0.000 C 
ATOM   2017  C13 CER     1      -3.278 -41.673   8.118  1.00  0.00     0.000 C 
ATOM   2018  C13 CER     1     -34.394 -15.315   8.006  1.00  0.00     0.000 C 
ATOM   2019  C13 CER     1      32.187 -27.551   8.029  1.00  0.00     0.000 C 
ATOM   2020  C13 CER     1      28.555  36.224   8.009  1.00  0.00     0.000 C 
ATOM   2021  C13 CER     1     -31.609  34.227   8.000  1.00  0.00     0.000 C 
ATOM   2022  C13 CER     1     -43.437  -1.894   8.006  1.00  0.00     0.000 C 
ATOM   2023  C13 CER     1      46.725   9.793   8.007  1.00  0.00     0.000 C 
ATOM   2024  C13 CER     1      35.416 -32.870   7.999  1.00  0.00     0.000 C 
ATOM   2025  C13 CER     1     -36.571  32.344   8.187  1.00  0.00     0.000 C 
ATOM   2026  C13 CER     1     -16.339  43.158   8.002  1.00  0.00     0.000 C 
ATOM   2027  C13 CER     1      -8.720  45.917   8.032  1.00  0.00     0.000 C 
ATOM   2028  C13 CER     1       8.102  48.133   7.996  1.00  0.00     0.000 C 
ATOM   2029  C13 CER     1     -32.008 -43.451   8.008  1.00  0.00     0.000 C 
ATOM   2030  C13 CER     1      38.995 -30.166   8.007  1.00  0.00     0.000 C 
ATOM   2031  C13 CER     1     -25.997 -46.284   8.003  1.00  0.00     0.000 C 
ATOM   2032  C13 CER     1       6.085 -54.363   8.007  1.00  0.00     0.000 C 
ATOM   2033  C13 CER     1      20.008 -46.992   8.006  1.00  0.00     0.000 C 
ATOM   2034  C13 CER     1      28.070  47.944   8.008  1.00  0.00     0.000 C 
ATOM   2035  C13 CER     1      32.884  37.748   8.008  1.00  0.00     0.000 C 
ATOM   2036  C13 CER     1     -46.753  18.636   8.028  1.00  0.00     0.000 C 
ATOM   2037  C13 CER     1     -34.624  40.965   8.007  1.00  0.00     0.000 C 
ATOM   2038  C13 CER     1     -51.498  -9.514   8.068  1.00  0.00     0.000 C 
ATOM   2039  C13 CER     1      30.481 -47.604   8.006  1.00  0.00     0.000 C 
ATOM   2040  C13 CER     1     -16.282 -49.016   7.949  1.00  0.00     0.000 C 
ATOM   2041  C13 CER     1     -45.168  27.084   8.235  1.00  0.00     0.000 C 
ATOM   2042  C13 CER     1      17.799  54.856   8.007  1.00  0.00     0.000 C 
ATOM   2043  C13 CER     1     -26.017  55.296   7.926  1.00  0.00     0.000 C 
ATOM   2044  C13 CER     1      50.983 -29.420   8.011  1.00  0.00     0.000 C 
ATOM   2045  C13 CER     1     -41.661 -46.095   7.960  1.00  0.00     0.000 C 
ATOM   2046  C13 CER     1     -29.750 -49.203   7.992  1.00  0.00     0.000 C 
ATOM   2047  C13 CER     1      35.136  46.780   8.007  1.00  0.00     0.000 C 
ATOM   2048  C13 CER     1      54.992  33.339   7.946  1.00  0.00     0.000 C 
ATOM   2049  C13 CER     1      38.792 -52.475   8.007  1.00  0.00     0.000 C 
ATOM   2050  C13 CER     1      49.146 -49.214   8.014  1.00  0.00     0.000 C 
ATOM   2051  C13 CER     1     -55.089  43.385   8.069  1.00  0.00     0.000 C 
ATOM   2052  C13 CER     1     -53.458 -55.731   8.006  1.00  0.00     0.000 C 
ATOM   2053  O13 CER     1      -2.704   2.438  22.105  1.00  0.00    -0.624 OA
ATOM   2054  O13 CER     1      -9.986  -0.131  22.069  1.00  0.00    -0.624 OA
ATOM   2055  O13 CER     1      11.604  -7.779  22.112  1.00  0.00    -0.624 OA
ATOM   2056  O13 CER     1      -9.218  15.268  22.108  1.00  0.00    -0.624 OA
ATOM   2057  O13 CER     1       8.492  16.542  22.119  1.00  0.00    -0.624 OA
ATOM   2058  O13 CER     1     -18.413  12.485  22.059  1.00  0.00    -0.624 OA
ATOM   2059  O13 CER     1      -1.960  21.472  22.282  1.00  0.00    -0.624 OA
ATOM   2060  O13 CER     1      18.301  13.268  22.107  1.00  0.00    -0.624 OA
ATOM   2061  O13 CER     1     -28.870   7.413  22.139  1.00  0.00    -0.624 OA
ATOM   2062  O13 CER     1     -11.701 -21.521  22.146  1.00  0.00    -0.624 OA
ATOM   2063  O13 CER     1      -0.154  30.810  22.142  1.00  0.00    -0.624 OA
ATOM   2064  O13 CER     1     -12.584  33.102  22.026  1.00  0.00    -0.624 OA
ATOM   2065  O13 CER     1       8.553 -36.703  22.014  1.00  0.00    -0.624 OA
ATOM   2066  O13 CER     1     -27.595 -25.890  22.169  1.00  0.00    -0.624 OA
ATOM   2067  O13 CER     1     -11.514 -37.207  22.171  1.00  0.00    -0.624 OA
ATOM   2068  O13 CER     1      25.689 -29.436  22.055  1.00  0.00    -0.624 OA
ATOM   2069  O13 CER     1      28.062  22.170  22.126  1.00  0.00    -0.624 OA
ATOM   2070  O13 CER     1      -3.653  40.535  22.090  1.00  0.00    -0.624 OA
ATOM   2071  O13 CER     1      -3.227 -35.582  22.147  1.00  0.00    -0.624 OA
ATOM   2072  O13 CER     1     -39.996 -17.990  22.076  1.00  0.00    -0.624 OA
ATOM   2073  O13 CER     1      32.038 -21.247  22.120  1.00  0.00    -0.624 OA
ATOM   2074  O13 CER     1      23.935  32.010  22.158  1.00  0.00    -0.624 OA
ATOM   2075  O13 CER     1     -25.456  33.584  22.107  1.00  0.00    -0.624 OA
ATOM   2076  O13 CER     1     -46.146   3.688  22.175  1.00  0.00    -0.624 OA
ATOM   2077  O13 CER     1      47.037   3.620  22.131  1.00  0.00    -0.624 OA
ATOM   2078  O13 CER     1      30.865 -36.671  20.971  1.00  0.00    -0.131 OA
ATOM   2079  O13 CER     1     -38.963  26.430  22.087  1.00  0.00    -0.624 OA
ATOM   2080  O13 CER     1     -20.015  48.133  22.125  1.00  0.00    -0.624 OA
ATOM   2081  O13 CER     1      -9.567  52.030  22.026  1.00  0.00    -0.624 OA
ATOM   2082  O13 CER     1      13.549  51.243  22.075  1.00  0.00    -0.624 OA
ATOM   2083  O13 CER     1     -31.624 -37.307  22.121  1.00  0.00    -0.624 OA
ATOM   2084  O13 CER     1      45.012 -28.411  22.165  1.00  0.00    -0.624 OA
ATOM   2085  O13 CER     1     -19.894 -45.112  22.181  1.00  0.00    -0.624 OA
ATOM   2086  O13 CER     1       0.760 -51.085  22.081  1.00  0.00    -0.624 OA
ATOM   2087  O13 CER     1      26.283 -46.502  22.144  1.00  0.00    -0.624 OA
ATOM   2088  O13 CER     1      28.016  41.679  22.067  1.00  0.00    -0.624 OA
ATOM   2089  O13 CER     1      37.462  42.036  22.142  1.00  0.00    -0.624 OA
ATOM   2090  O13 CER     1     -52.688  18.097  22.258  1.00  0.00    -0.624 OA
ATOM   2091  O13 CER     1     -39.349  36.895  22.128  1.00  0.00    -0.624 OA
ATOM   2092  O13 CER     1     -57.283  -7.131  22.173  1.00  0.00    -0.624 OA
ATOM   2093  O13 CER     1      30.732 -41.406  22.120  1.00  0.00    -0.624 OA
ATOM   2094  O13 CER     1     -13.634 -54.350  22.641  1.00  0.00    -0.624 OA
ATOM   2095  O13 CER     1     -51.595  28.217  22.165  1.00  0.00    -0.624 OA
ATOM   2096  O13 CER     1      24.205  53.995  21.740  1.00  0.00    -0.624 OA
ATOM   2097  O13 CER     1     -23.102  49.366  22.104  1.00  0.00    -0.624 OA
ATOM   2098  O13 CER     1      51.021 -23.265  22.091  1.00  0.00    -0.624 OA
ATOM   2099  O13 CER     1     -38.130 -41.000  22.088  1.00  0.00    -0.624 OA
ATOM   2100  O13 CER     1     -35.228 -52.181  22.110  1.00  0.00    -0.624 OA
ATOM   2101  O13 CER     1      39.569  51.188  22.118  1.00  0.00    -0.624 OA
ATOM   2102  O13 CER     1      48.803  33.665  22.203  1.00  0.00    -0.624 OA
ATOM   2103  O13 CER     1      41.158 -46.702  22.175  1.00  0.00    -0.624 OA
ATOM   2104  O13 CER     1      46.536 -43.728  22.291  1.00  0.00    -0.624 OA
ATOM   2105  O13 CER     1     -51.665  48.250  22.186  1.00  0.00    -0.624 OA
ATOM   2106  O13 CER     1     -50.628 -50.283  22.162  1.00  0.00    -0.624 OA
ATOM   2107  C14 CER     1      -3.996   6.255  24.106  1.00  0.00     0.180 C 
ATOM   2108  C14 CER     1     -12.698  -3.085  24.112  1.00  0.00     0.180 C 
ATOM   2109  C14 CER     1      12.773 -11.690  24.121  1.00  0.00     0.180 C 
ATOM   2110  C14 CER     1      -9.281  19.277  24.122  1.00  0.00     0.180 C 
ATOM   2111  C14 CER     1       8.030  20.548  24.108  1.00  0.00     0.180 C 
ATOM   2112  C14 CER     1     -18.131  16.537  24.115  1.00  0.00     0.180 C 
ATOM   2113  C14 CER     1       1.649  19.749  24.114  1.00  0.00     0.180 C 
ATOM   2114  C14 CER     1      15.466  10.474  24.116  1.00  0.00     0.180 C 
ATOM   2115  C14 CER     1     -31.657  10.337  24.129  1.00  0.00     0.180 C 
ATOM   2116  C14 CER     1     -12.472 -17.532  24.114  1.00  0.00     0.180 C 
ATOM   2117  C14 CER     1       3.974  30.669  24.127  1.00  0.00     0.180 C 
ATOM   2118  C14 CER     1      -9.954  36.128  24.240  1.00  0.00     0.180 C 
ATOM   2119  C14 CER     1       9.491 -40.617  24.145  1.00  0.00     0.180 C 
ATOM   2120  C14 CER     1     -30.154 -28.901  24.103  1.00  0.00     0.180 C 
ATOM   2121  C14 CER     1     -14.013 -40.361  24.110  1.00  0.00     0.180 C 
ATOM   2122  C14 CER     1      25.353 -33.417  24.109  1.00  0.00     0.180 C 
ATOM   2123  C14 CER     1      26.020  25.638  24.213  1.00  0.00     0.180 C 
ATOM   2124  C14 CER     1      -5.114  44.295  24.079  1.00  0.00     0.180 C 
ATOM   2125  C14 CER     1      -1.631 -31.813  24.119  1.00  0.00     0.180 C 
ATOM   2126  C14 CER     1     -43.999 -18.605  24.113  1.00  0.00     0.180 C 
ATOM   2127  C14 CER     1      33.128 -17.434  24.108  1.00  0.00     0.180 C 
ATOM   2128  C14 CER     1      20.267  30.364  24.126  1.00  0.00     0.180 C 
ATOM   2129  C14 CER     1     -21.712  32.108  24.100  1.00  0.00     0.180 C 
ATOM   2130  C14 CER     1     -46.837   7.678  24.124  1.00  0.00     0.180 C 
ATOM   2131  C14 CER     1      46.040  -0.319  24.114  1.00  0.00     0.180 C 
ATOM   2132  C14 CER     1      28.309 -40.429  24.154  1.00  0.00     0.180 C 
ATOM   2133  C14 CER     1     -41.757  23.485  24.121  1.00  0.00     0.180 C 
ATOM   2134  C14 CER     1     -21.804  51.741  24.140  1.00  0.00     0.180 C 
ATOM   2135  C14 CER     1      -9.148  55.921  24.076  1.00  0.00     0.180 C 
ATOM   2136  C14 CER     1      17.401  52.208  24.106  1.00  0.00     0.180 C 
ATOM   2137  C14 CER     1     -30.282 -33.587  24.128  1.00  0.00     0.180 C 
ATOM   2138  C14 CER     1      49.006 -28.508  24.122  1.00  0.00     0.180 C 
ATOM   2139  C14 CER     1     -15.872 -45.537  24.113  1.00  0.00     0.180 C 
ATOM   2140  C14 CER     1      -1.884 -48.057  24.134  1.00  0.00     0.180 C 
ATOM   2141  C14 CER     1      30.168 -47.403  24.156  1.00  0.00     0.180 C 
ATOM   2142  C14 CER     1      26.827  37.858  24.123  1.00  0.00     0.180 C 
ATOM   2143  C14 CER     1      41.067  43.761  24.126  1.00  0.00     0.180 C 
ATOM   2144  C14 CER     1     -56.732  18.460  24.094  1.00  0.00     0.180 C 
ATOM   2145  C14 CER     1     -43.069  35.322  24.117  1.00  0.00     0.180 C 
ATOM   2146  C14 CER     1     -60.960  -4.777  24.123  1.00  0.00     0.180 C 
ATOM   2147  C14 CER     1      31.841 -37.573  24.517  1.00  0.00     0.154 C 
ATOM   2148  C14 CER     1     -12.890 -58.892  23.910  1.00  0.00     0.180 C 
ATOM   2149  C14 CER     1     -54.920  30.964  23.861  1.00  0.00     0.180 C 
ATOM   2150  C14 CER     1      27.753  52.729  24.120  1.00  0.00     0.180 C 
ATOM   2151  C14 CER     1     -21.551  45.784  24.127  1.00  0.00     0.180 C 
ATOM   2152  C14 CER     1      52.280 -19.336  24.114  1.00  0.00     0.180 C 
ATOM   2153  C14 CER     1     -34.987 -38.518  24.128  1.00  0.00     0.180 C 
ATOM   2154  C14 CER     1     -39.334 -52.884  23.880  1.00  0.00     0.180 C 
ATOM   2155  C14 CER     1      43.174  53.035  24.083  1.00  0.00     0.180 C 
ATOM   2156  C14 CER     1      45.044  35.076  24.199  1.00  0.00     0.180 C 
ATOM   2157  C14 CER     1      43.586 -43.589  24.144  1.00  0.00     0.180 C 
ATOM   2158  C14 CER     1      45.578 -39.649  24.119  1.00  0.00     0.180 C 
ATOM   2159  C14 CER     1     -48.218  50.682  24.126  1.00  0.00     0.180 C 
ATOM   2160  C14 CER     1     -47.784 -47.307  24.129  1.00  0.00     0.180 C 
ATOM   2161  C14 CER     1       1.056   3.836   5.450  1.00  0.00    -0.000 C 
ATOM   2162  C14 CER     1     -12.709   2.615   5.508  1.00  0.00    -0.000 C 
ATOM   2163  C14 CER     1       7.790  -8.899   5.549  1.00  0.00    -0.000 C 
ATOM   2164  C14 CER     1      -5.378  15.315   5.446  1.00  0.00    -0.000 C 
ATOM   2165  C14 CER     1      12.381  17.065   5.426  1.00  0.00    -0.000 C 
ATOM   2166  C14 CER     1     -14.400  12.361   5.450  1.00  0.00    -0.000 C 
ATOM   2167  C14 CER     1      -3.437  18.021   5.466  1.00  0.00    -0.000 C 
ATOM   2168  C14 CER     1      15.559  16.001   5.454  1.00  0.00    -0.000 C 
ATOM   2169  C14 CER     1     -26.075  10.261   5.451  1.00  0.00    -0.000 C 
ATOM   2170  C14 CER     1      -7.813 -20.628   5.450  1.00  0.00    -0.000 C 
ATOM   2171  C14 CER     1      -0.144  26.850   5.451  1.00  0.00    -0.000 C 
ATOM   2172  C14 CER     1      -9.439  30.659   5.459  1.00  0.00    -0.000 C 
ATOM   2173  C14 CER     1       4.884 -37.715   5.452  1.00  0.00    -0.000 C 
ATOM   2174  C14 CER     1     -30.463 -23.608   5.413  1.00  0.00    -0.000 C 
ATOM   2175  C14 CER     1     -14.613 -34.798   5.452  1.00  0.00    -0.000 C 
ATOM   2176  C14 CER     1      21.660 -29.245   5.452  1.00  0.00    -0.000 C 
ATOM   2177  C14 CER     1      31.393  24.337   5.447  1.00  0.00    -0.000 C 
ATOM   2178  C14 CER     1       0.039  42.104   5.450  1.00  0.00    -0.000 C 
ATOM   2179  C14 CER     1      -0.488 -36.287   4.964  1.00  0.00     0.000 C 
ATOM   2180  C14 CER     1     -40.718 -14.076   5.451  1.00  0.00    -0.000 C 
ATOM   2181  C14 CER     1      36.048 -22.323   5.432  1.00  0.00    -0.000 C 
ATOM   2182  C14 CER     1      22.154  35.593   5.451  1.00  0.00    -0.000 C 
ATOM   2183  C14 CER     1     -26.838  29.857   5.451  1.00  0.00    -0.000 C 
ATOM   2184  C14 CER     1     -42.627   4.291   5.460  1.00  0.00    -0.000 C 
ATOM   2185  C14 CER     1      43.136   4.445   5.455  1.00  0.00    -0.000 C 
ATOM   2186  C14 CER     1      29.292 -34.733   5.457  1.00  0.00    -0.000 C 
ATOM   2187  C14 CER     1     -41.774  29.124   5.511  1.00  0.00    -0.000 C 
ATOM   2188  C14 CER     1     -16.655  49.576   5.444  1.00  0.00    -0.000 C 
ATOM   2189  C14 CER     1      -5.690  51.921   5.419  1.00  0.00    -0.000 C 
ATOM   2190  C14 CER     1      14.540  47.429   5.458  1.00  0.00    -0.000 C 
ATOM   2191  C14 CER     1     -27.877 -38.507   5.454  1.00  0.00    -0.000 C 
ATOM   2192  C14 CER     1      45.015 -32.424   5.453  1.00  0.00    -0.000 C 
ATOM   2193  C14 CER     1     -20.424 -49.016   5.498  1.00  0.00    -0.000 C 
ATOM   2194  C14 CER     1       3.692 -48.380   5.450  1.00  0.00    -0.000 C 
ATOM   2195  C14 CER     1      25.471 -50.406   5.451  1.00  0.00    -0.000 C 
ATOM   2196  C14 CER     1      24.215  42.808   5.463  1.00  0.00    -0.000 C 
ATOM   2197  C14 CER     1      39.278  38.467   5.453  1.00  0.00    -0.000 C 
ATOM   2198  C14 CER     1     -52.215  21.816   5.450  1.00  0.00    -0.000 C 
ATOM   2199  C14 CER     1     -40.750  40.021   5.446  1.00  0.00    -0.000 C 
ATOM   2200  C14 CER     1     -55.100  -4.226   5.450  1.00  0.00    -0.000 C 
ATOM   2201  C14 CER     1      34.272 -42.415   5.584  1.00  0.00    -0.000 C 
ATOM   2202  C14 CER     1     -17.257 -55.367   5.444  1.00  0.00    -0.000 C 
ATOM   2203  C14 CER     1     -49.661  31.727   5.452  1.00  0.00    -0.000 C 
ATOM   2204  C14 CER     1      22.592  50.547   5.451  1.00  0.00    -0.000 C 
ATOM   2205  C14 CER     1     -26.471  48.261   5.333  1.00  0.00    -0.000 C 
ATOM   2206  C14 CER     1      54.929 -24.344   5.450  1.00  0.00    -0.000 C 
ATOM   2207  C14 CER     1     -35.570 -44.073   5.450  1.00  0.00    -0.000 C 
ATOM   2208  C14 CER     1     -36.073 -48.351   5.431  1.00  0.00    -0.000 C 
ATOM   2209  C14 CER     1      41.567  47.740   5.298  1.00  0.00    -0.000 C 
ATOM   2210  C14 CER     1      50.036  37.411   5.447  1.00  0.00    -0.000 C 
ATOM   2211  C14 CER     1      44.278 -49.093   5.451  1.00  0.00    -0.000 C 
ATOM   2212  C14 CER     1      50.166 -42.848   5.450  1.00  0.00    -0.000 C 
ATOM   2213  C14 CER     1     -49.063  45.104   5.466  1.00  0.00    -0.000 C 
ATOM   2214  C14 CER     1     -47.953 -53.211   5.335  1.00  0.00    -0.000 C 
ATOM   2215  C14 CER     1       1.407  -2.772   6.511  1.00  0.00     0.000 C 
ATOM   2216  C14 CER     1      -7.708   5.983   6.517  1.00  0.00     0.000 C 
ATOM   2217  C14 CER     1       7.861  -2.359   6.518  1.00  0.00     0.000 C 
ATOM   2218  C14 CER     1      -6.828   9.146   6.518  1.00  0.00     0.000 C 
ATOM   2219  C14 CER     1      11.340  10.539   6.543  1.00  0.00     0.000 C 
ATOM   2220  C14 CER     1     -16.499   6.466   6.651  1.00  0.00     0.000 C 
ATOM   2221  C14 CER     1      -8.617  22.178   6.517  1.00  0.00     0.000 C 
ATOM   2222  C14 CER     1      21.177  19.337   6.526  1.00  0.00     0.000 C 
ATOM   2223  C14 CER     1     -22.971   4.386   6.518  1.00  0.00     0.000 C 
ATOM   2224  C14 CER     1      -8.390 -27.203   6.525  1.00  0.00     0.000 C 
ATOM   2225  C14 CER     1      -6.437  28.890   6.534  1.00  0.00     0.000 C 
ATOM   2226  C14 CER     1     -14.823  26.820   6.503  1.00  0.00     0.000 C 
ATOM   2227  C14 CER     1       3.924 -31.110   6.816  1.00  0.00     0.000 C 
ATOM   2228  C14 CER     1     -25.559 -20.450   7.184  1.00  0.00     0.000 C 
ATOM   2229  C14 CER     1      -9.156 -31.004   6.530  1.00  0.00     0.000 C 
ATOM   2230  C14 CER     1      23.947 -23.159   6.343  1.00  0.00     0.000 C 
ATOM   2231  C14 CER     1      33.086  17.911   6.518  1.00  0.00     0.000 C 
ATOM   2232  C14 CER     1       0.724  35.497   6.518  1.00  0.00     0.000 C 
ATOM   2233  C14 CER     1      -2.957 -42.303   6.714  1.00  0.00     0.000 C 
ATOM   2234  C14 CER     1     -34.130 -14.936   6.518  1.00  0.00     0.000 C 
ATOM   2235  C14 CER     1      32.412 -27.957   6.560  1.00  0.00     0.000 C 
ATOM   2236  C14 CER     1      28.702  36.660   6.519  1.00  0.00     0.000 C 
ATOM   2237  C14 CER     1     -31.991  34.024   6.473  1.00  0.00     0.000 C 
ATOM   2238  C14 CER     1     -43.057  -2.154   6.517  1.00  0.00     0.000 C 
ATOM   2239  C14 CER     1      46.480  10.184   6.519  1.00  0.00     0.000 C 
ATOM   2240  C14 CER     1      35.479 -32.418   6.514  1.00  0.00     0.000 C 
ATOM   2241  C14 CER     1     -36.772  33.098   6.768  1.00  0.00     0.000 C 
ATOM   2242  C14 CER     1     -15.907  42.990   6.516  1.00  0.00     0.000 C 
ATOM   2243  C14 CER     1      -8.592  45.364   6.573  1.00  0.00     0.000 C 
ATOM   2244  C14 CER     1       7.883  47.703   6.510  1.00  0.00     0.000 C 
ATOM   2245  C14 CER     1     -31.797 -43.861   6.522  1.00  0.00     0.000 C 
ATOM   2246  C14 CER     1      38.690 -30.492   6.516  1.00  0.00     0.000 C 
ATOM   2247  C14 CER     1     -26.315 -46.559   6.507  1.00  0.00     0.000 C 
ATOM   2248  C14 CER     1       6.546 -54.380   6.518  1.00  0.00     0.000 C 
ATOM   2249  C14 CER     1      19.626 -47.249   6.518  1.00  0.00     0.000 C 
ATOM   2250  C14 CER     1      27.848  48.347   6.519  1.00  0.00     0.000 C 
ATOM   2251  C14 CER     1      32.743  37.309   6.519  1.00  0.00     0.000 C 
ATOM   2252  C14 CER     1     -46.471  19.070   6.598  1.00  0.00     0.000 C 
ATOM   2253  C14 CER     1     -34.468  41.398   6.518  1.00  0.00     0.000 C 
ATOM   2254  C14 CER     1     -51.107  -9.390   6.581  1.00  0.00     0.000 C 
ATOM   2255  C14 CER     1      30.715 -48.001   6.518  1.00  0.00     0.000 C 
ATOM   2256  C14 CER     1     -16.716 -48.779   6.501  1.00  0.00     0.000 C 
ATOM   2257  C14 CER     1     -44.377  27.756   6.997  1.00  0.00     0.000 C 
ATOM   2258  C14 CER     1      17.378  54.665   6.518  1.00  0.00     0.000 C 
ATOM   2259  C14 CER     1     -26.581  55.312   6.344  1.00  0.00     0.000 C 
ATOM   2260  C14 CER     1      51.193 -29.770   6.510  1.00  0.00     0.000 C 
ATOM   2261  C14 CER     1     -41.707 -46.536   6.478  1.00  0.00     0.000 C 
ATOM   2262  C14 CER     1     -29.534 -48.840   6.503  1.00  0.00     0.000 C 
ATOM   2263  C14 CER     1      35.010  46.345   6.517  1.00  0.00     0.000 C 
ATOM   2264  C14 CER     1      55.425  33.543   6.484  1.00  0.00     0.000 C 
ATOM   2265  C14 CER     1      38.856 -52.932   6.519  1.00  0.00     0.000 C 
ATOM   2266  C14 CER     1      49.527 -49.467   6.530  1.00  0.00     0.000 C 
ATOM   2267  C14 CER     1     -55.123  43.080   6.536  1.00  0.00     0.000 C 
ATOM   2268  C14 CER     1     -53.439 -56.192   6.518  1.00  0.00     0.000 C 
ATOM   2269  O14 CER     1      -0.247   2.378  22.917  1.00  0.00    -0.624 OA
ATOM   2270  O14 CER     1     -11.116   1.958  22.903  1.00  0.00    -0.624 OA
ATOM   2271  O14 CER     1       9.247  -7.576  22.919  1.00  0.00    -0.624 OA
ATOM   2272  O14 CER     1      -6.929  14.419  22.926  1.00  0.00    -0.624 OA
ATOM   2273  O14 CER     1      10.865  15.987  22.942  1.00  0.00    -0.624 OA
ATOM   2274  O14 CER     1     -16.282  11.403  22.909  1.00  0.00    -0.624 OA
ATOM   2275  O14 CER     1      -3.733  19.812  22.943  1.00  0.00    -0.624 OA
ATOM   2276  O14 CER     1      17.333  15.485  22.889  1.00  0.00    -0.624 OA
ATOM   2277  O14 CER     1     -26.663   8.376  22.945  1.00  0.00    -0.624 OA
ATOM   2278  O14 CER     1      -9.311 -21.928  22.868  1.00  0.00    -0.624 OA
ATOM   2279  O14 CER     1      -1.025  28.589  22.907  1.00  0.00    -0.624 OA
ATOM   2280  O14 CER     1     -11.413  30.991  22.960  1.00  0.00    -0.624 OA
ATOM   2281  O14 CER     1       6.160 -36.457  22.873  1.00  0.00    -0.624 OA
ATOM   2282  O14 CER     1     -28.886 -23.831  22.907  1.00  0.00    -0.624 OA
ATOM   2283  O14 CER     1     -12.733 -35.132  22.948  1.00  0.00    -0.624 OA
ATOM   2284  O14 CER     1      23.511 -28.448  22.921  1.00  0.00    -0.624 OA
ATOM   2285  O14 CER     1      30.430  22.576  22.877  1.00  0.00    -0.624 OA
ATOM   2286  O14 CER     1      -1.197  40.608  22.920  1.00  0.00    -0.624 OA
ATOM   2287  O14 CER     1      -1.426 -37.114  22.941  1.00  0.00    -0.624 OA
ATOM   2288  O14 CER     1     -39.488 -15.645  22.869  1.00  0.00    -0.624 OA
ATOM   2289  O14 CER     1      33.956 -22.737  22.894  1.00  0.00    -0.624 OA
ATOM   2290  O14 CER     1      23.696  34.431  22.996  1.00  0.00    -0.624 OA
ATOM   2291  O14 CER     1     -27.097  31.786  22.857  1.00  0.00    -0.624 OA
ATOM   2292  O14 CER     1     -43.780   3.228  22.916  1.00  0.00    -0.624 OA
ATOM   2293  O14 CER     1      45.049   4.958  22.991  1.00  0.00    -0.624 OA
ATOM   2294  O14 CER     1      30.795 -34.653  22.270  1.00  0.00    -0.243 OA
ATOM   2295  O14 CER     1     -40.082  28.563  22.916  1.00  0.00    -0.624 OA
ATOM   2296  O14 CER     1     -17.630  48.116  22.879  1.00  0.00    -0.624 OA
ATOM   2297  O14 CER     1      -7.435  50.968  22.890  1.00  0.00    -0.624 OA
ATOM   2298  O14 CER     1      13.264  48.829  22.909  1.00  0.00    -0.624 OA
ATOM   2299  O14 CER     1     -29.846 -38.852  23.058  1.00  0.00    -0.624 OA
ATOM   2300  O14 CER     1      44.096 -30.737  22.873  1.00  0.00    -0.624 OA
ATOM   2301  O14 CER     1     -21.004 -47.281  22.928  1.00  0.00    -0.624 OA
ATOM   2302  O14 CER     1       2.991 -50.226  22.893  1.00  0.00    -0.624 OA
ATOM   2303  O14 CER     1      24.955 -48.507  22.981  1.00  0.00    -0.624 OA
ATOM   2304  O14 CER     1      26.094  43.150  22.923  1.00  0.00    -0.624 OA
ATOM   2305  O14 CER     1      37.675  39.637  22.972  1.00  0.00    -0.624 OA
ATOM   2306  O14 CER     1     -51.218  19.918  23.198  1.00  0.00    -0.624 OA
ATOM   2307  O14 CER     1     -39.395  39.285  22.902  1.00  0.00    -0.624 OA
ATOM   2308  O14 CER     1     -55.321  -5.724  22.767  1.00  0.00    -0.624 OA
ATOM   2309  O14 CER     1      32.474 -42.885  22.895  1.00  0.00    -0.624 OA
ATOM   2310  O14 CER     1     -15.961 -53.566  23.200  1.00  0.00    -0.624 OA
ATOM   2311  O14 CER     1     -49.602  29.656  22.927  1.00  0.00    -0.624 OA
ATOM   2312  O14 CER     1      22.449  52.486  22.934  1.00  0.00    -0.624 OA
ATOM   2313  O14 CER     1     -25.403  49.597  22.927  1.00  0.00    -0.624 OA
ATOM   2314  O14 CER     1      53.004 -24.732  22.911  1.00  0.00    -0.624 OA
ATOM   2315  O14 CER     1     -37.474 -43.343  22.888  1.00  0.00    -0.624 OA
ATOM   2316  O14 CER     1     -34.849 -49.808  22.900  1.00  0.00    -0.624 OA
ATOM   2317  O14 CER     1      39.843  48.756  22.897  1.00  0.00    -0.624 OA
ATOM   2318  O14 CER     1      50.383  35.541  22.967  1.00  0.00    -0.624 OA
ATOM   2319  O14 CER     1      42.394 -48.762  22.959  1.00  0.00    -0.624 OA
ATOM   2320  O14 CER     1      48.870 -43.893  23.269  1.00  0.00    -0.624 OA
ATOM   2321  O14 CER     1     -50.895  45.970  22.975  1.00  0.00    -0.624 OA
ATOM   2322  O14 CER     1     -49.508 -52.413  22.904  1.00  0.00    -0.624 OA
ATOM   2323  C15 CER     1      -4.218   6.319  22.614  1.00  0.00     0.181 C 
ATOM   2324  C15 CER     1     -12.660  -3.307  22.615  1.00  0.00     0.181 C 
ATOM   2325  C15 CER     1      12.967 -11.744  22.624  1.00  0.00     0.181 C 
ATOM   2326  C15 CER     1      -9.470  19.389  22.632  1.00  0.00     0.181 C 
ATOM   2327  C15 CER     1       7.832  20.649  22.614  1.00  0.00     0.181 C 
ATOM   2328  C15 CER     1     -18.320  16.641  22.616  1.00  0.00     0.181 C 
ATOM   2329  C15 CER     1       1.841  19.851  22.614  1.00  0.00     0.181 C 
ATOM   2330  C15 CER     1      15.496  10.253  22.631  1.00  0.00     0.181 C 
ATOM   2331  C15 CER     1     -31.858  10.241  22.630  1.00  0.00     0.181 C 
ATOM   2332  C15 CER     1     -12.677 -17.453  22.627  1.00  0.00     0.181 C 
ATOM   2333  C15 CER     1       4.053  30.863  22.634  1.00  0.00     0.181 C 
ATOM   2334  C15 CER     1      -9.869  36.247  22.764  1.00  0.00     0.181 C 
ATOM   2335  C15 CER     1       9.688 -40.695  22.647  1.00  0.00     0.181 C 
ATOM   2336  C15 CER     1     -30.138 -29.206  22.637  1.00  0.00     0.181 C 
ATOM   2337  C15 CER     1     -13.948 -40.568  22.615  1.00  0.00     0.181 C 
ATOM   2338  C15 CER     1      25.516 -33.569  22.616  1.00  0.00     0.181 C 
ATOM   2339  C15 CER     1      25.831  25.509  22.756  1.00  0.00     0.181 C 
ATOM   2340  C15 CER     1      -5.344  44.346  22.592  1.00  0.00     0.181 C 
ATOM   2341  C15 CER     1      -1.740 -31.636  22.625  1.00  0.00     0.181 C 
ATOM   2342  C15 CER     1     -44.098 -18.801  22.611  1.00  0.00     0.181 C 
ATOM   2343  C15 CER     1      33.001 -17.266  22.615  1.00  0.00     0.181 C 
ATOM   2344  C15 CER     1      20.143  30.199  22.648  1.00  0.00     0.181 C 
ATOM   2345  C15 CER     1     -21.525  32.233  22.611  1.00  0.00     0.181 C 
ATOM   2346  C15 CER     1     -47.040   7.779  22.625  1.00  0.00     0.181 C 
ATOM   2347  C15 CER     1      46.189  -0.437  22.616  1.00  0.00     0.181 C 
ATOM   2348  C15 CER     1      28.302 -40.529  22.652  1.00  0.00     0.181 C 
ATOM   2349  C15 CER     1     -41.726  23.266  22.625  1.00  0.00     0.181 C 
ATOM   2350  C15 CER     1     -21.927  51.882  22.653  1.00  0.00     0.181 C 
ATOM   2351  C15 CER     1      -9.375  56.003  22.528  1.00  0.00     0.181 C 
ATOM   2352  C15 CER     1      17.431  52.413  22.597  1.00  0.00     0.181 C 
ATOM   2353  C15 CER     1     -30.388 -33.300  22.661  1.00  0.00     0.181 C 
ATOM   2354  C15 CER     1      49.129 -28.350  22.613  1.00  0.00     0.181 C 
ATOM   2355  C15 CER     1     -15.755 -45.326  22.629  1.00  0.00     0.181 C 
ATOM   2356  C15 CER     1      -2.115 -48.095  22.642  1.00  0.00     0.181 C 
ATOM   2357  C15 CER     1      30.311 -47.288  22.661  1.00  0.00     0.181 C 
ATOM   2358  C15 CER     1      26.930  37.703  22.625  1.00  0.00     0.181 C 
ATOM   2359  C15 CER     1      41.088  43.989  22.635  1.00  0.00     0.181 C 
ATOM   2360  C15 CER     1     -56.760  18.287  22.634  1.00  0.00     0.181 C 
ATOM   2361  C15 CER     1     -43.120  35.098  22.622  1.00  0.00     0.181 C 
ATOM   2362  C15 CER     1     -61.007  -5.060  22.565  1.00  0.00     0.181 C 
ATOM   2363  C15 CER     1      31.372 -37.304  23.252  1.00  0.00     0.031 C 
ATOM   2364  C15 CER     1     -12.448 -58.548  22.467  1.00  0.00     0.181 C 
ATOM   2365  C15 CER     1     -55.202  30.562  22.239  1.00  0.00     0.181 C 
ATOM   2366  C15 CER     1      27.949  52.860  22.616  1.00  0.00     0.181 C 
ATOM   2367  C15 CER     1     -21.386  45.640  22.628  1.00  0.00     0.181 C 
ATOM   2368  C15 CER     1      52.186 -19.179  22.605  1.00  0.00     0.181 C 
ATOM   2369  C15 CER     1     -34.991 -38.296  22.636  1.00  0.00     0.181 C 
ATOM   2370  C15 CER     1     -39.169 -53.053  22.389  1.00  0.00     0.181 C 
ATOM   2371  C15 CER     1      43.340  53.116  22.572  1.00  0.00     0.181 C 
ATOM   2372  C15 CER     1      44.955  34.875  22.749  1.00  0.00     0.181 C 
ATOM   2373  C15 CER     1      43.478 -43.364  22.654  1.00  0.00     0.181 C 
ATOM   2374  C15 CER     1      45.359 -39.609  22.641  1.00  0.00     0.181 C 
ATOM   2375  C15 CER     1     -48.234  50.934  22.638  1.00  0.00     0.181 C 
ATOM   2376  C15 CER     1     -47.808 -47.100  22.626  1.00  0.00     0.181 C 
ATOM   2377  C15 CER     1       1.160   3.252   4.039  1.00  0.00    -0.005 C 
ATOM   2378  C15 CER     1     -12.483   2.922   4.023  1.00  0.00    -0.005 C 
ATOM   2379  C15 CER     1       7.646  -8.114   4.268  1.00  0.00    -0.005 C 
ATOM   2380  C15 CER     1      -5.367  14.803   4.002  1.00  0.00    -0.005 C 
ATOM   2381  C15 CER     1      12.378  16.476   4.000  1.00  0.00    -0.005 C 
ATOM   2382  C15 CER     1     -14.524  11.780   4.038  1.00  0.00    -0.005 C 
ATOM   2383  C15 CER     1      -3.979  18.286   4.087  1.00  0.00    -0.005 C 
ATOM   2384  C15 CER     1      15.933  16.397   4.027  1.00  0.00    -0.005 C 
ATOM   2385  C15 CER     1     -25.737   9.773   4.040  1.00  0.00    -0.005 C 
ATOM   2386  C15 CER     1      -7.790 -21.220   4.038  1.00  0.00    -0.005 C 
ATOM   2387  C15 CER     1      -0.726  26.963   4.039  1.00  0.00    -0.005 C 
ATOM   2388  C15 CER     1      -9.909  30.297   4.063  1.00  0.00    -0.005 C 
ATOM   2389  C15 CER     1       4.877 -37.070   4.041  1.00  0.00    -0.005 C 
ATOM   2390  C15 CER     1     -30.160 -23.092   4.013  1.00  0.00    -0.005 C 
ATOM   2391  C15 CER     1     -14.172 -34.405   4.041  1.00  0.00    -0.005 C 
ATOM   2392  C15 CER     1      21.776 -28.673   4.039  1.00  0.00    -0.005 C 
ATOM   2393  C15 CER     1      31.607  23.778   4.041  1.00  0.00    -0.005 C 
ATOM   2394  C15 CER     1       0.171  41.526   4.039  1.00  0.00    -0.005 C 
ATOM   2395  C15 CER     1      -0.094 -36.818   3.197  1.00  0.00    -0.005 C 
ATOM   2396  C15 CER     1     -40.125 -14.080   4.039  1.00  0.00    -0.005 C 
ATOM   2397  C15 CER     1      35.673 -22.833   4.040  1.00  0.00    -0.005 C 
ATOM   2398  C15 CER     1      22.716  35.759   4.038  1.00  0.00    -0.005 C 
ATOM   2399  C15 CER     1     -27.347  30.158   4.039  1.00  0.00    -0.005 C 
ATOM   2400  C15 CER     1     -42.728   3.606   4.080  1.00  0.00    -0.005 C 
ATOM   2401  C15 CER     1      43.365   5.000   4.051  1.00  0.00    -0.005 C 
ATOM   2402  C15 CER     1      29.815 -34.465   4.047  1.00  0.00    -0.005 C 
ATOM   2403  C15 CER     1     -41.422  29.458   4.047  1.00  0.00    -0.005 C 
ATOM   2404  C15 CER     1     -16.526  48.985   4.036  1.00  0.00    -0.005 C 
ATOM   2405  C15 CER     1      -5.859  51.222   4.047  1.00  0.00    -0.005 C 
ATOM   2406  C15 CER     1      13.957  47.399   4.047  1.00  0.00    -0.005 C 
ATOM   2407  C15 CER     1     -28.166 -39.025   4.044  1.00  0.00    -0.005 C 
ATOM   2408  C15 CER     1      44.427 -32.323   4.045  1.00  0.00    -0.005 C 
ATOM   2409  C15 CER     1     -20.895 -48.820   4.028  1.00  0.00    -0.005 C 
ATOM   2410  C15 CER     1       4.008 -48.881   4.039  1.00  0.00    -0.005 C 
ATOM   2411  C15 CER     1      24.919 -50.189   4.039  1.00  0.00    -0.005 C 
ATOM   2412  C15 CER     1      24.444  43.340   4.043  1.00  0.00    -0.005 C 
ATOM   2413  C15 CER     1      38.695  38.291   4.050  1.00  0.00    -0.005 C 
ATOM   2414  C15 CER     1     -51.654  21.632   4.038  1.00  0.00    -0.005 C 
ATOM   2415  C15 CER     1     -40.301  40.307   3.974  1.00  0.00    -0.005 C 
ATOM   2416  C15 CER     1     -54.679  -4.643   4.038  1.00  0.00    -0.005 C 
ATOM   2417  C15 CER     1      33.999 -43.057   4.287  1.00  0.00    -0.005 C 
ATOM   2418  C15 CER     1     -17.273 -54.751   4.039  1.00  0.00    -0.005 C 
ATOM   2419  C15 CER     1     -49.193  31.362   4.040  1.00  0.00    -0.005 C 
ATOM   2420  C15 CER     1      22.084  50.857   4.040  1.00  0.00    -0.005 C 
ATOM   2421  C15 CER     1     -26.604  48.909   4.011  1.00  0.00    -0.005 C 
ATOM   2422  C15 CER     1      54.657 -24.871   4.039  1.00  0.00    -0.005 C 
ATOM   2423  C15 CER     1     -36.086 -44.358   4.039  1.00  0.00    -0.005 C 
ATOM   2424  C15 CER     1     -35.491 -48.310   4.025  1.00  0.00    -0.005 C 
ATOM   2425  C15 CER     1      40.973  47.491   3.954  1.00  0.00    -0.005 C 
ATOM   2426  C15 CER     1      50.560  37.144   4.035  1.00  0.00    -0.005 C 
ATOM   2427  C15 CER     1      43.841 -49.493   4.040  1.00  0.00    -0.005 C 
ATOM   2428  C15 CER     1      50.183 -43.441   4.038  1.00  0.00    -0.005 C 
ATOM   2429  C15 CER     1     -49.545  44.873   4.049  1.00  0.00    -0.005 C 
ATOM   2430  C15 CER     1     -48.427 -53.612   3.969  1.00  0.00    -0.005 C 
ATOM   2431  C15 CER     1       1.880  -1.539   5.701  1.00  0.00     0.000 C 
ATOM   2432  C15 CER     1      -9.017   5.849   5.706  1.00  0.00     0.000 C 
ATOM   2433  C15 CER     1       7.331  -3.585   5.723  1.00  0.00     0.000 C 
ATOM   2434  C15 CER     1      -6.028  10.129   5.705  1.00  0.00     0.000 C 
ATOM   2435  C15 CER     1      12.044  11.670   5.785  1.00  0.00     0.000 C 
ATOM   2436  C15 CER     1     -15.603   7.222   5.686  1.00  0.00     0.000 C 
ATOM   2437  C15 CER     1      -8.045  20.969   5.722  1.00  0.00     0.000 C 
ATOM   2438  C15 CER     1      19.851  19.186   5.726  1.00  0.00     0.000 C 
ATOM   2439  C15 CER     1     -23.071   5.718   5.722  1.00  0.00     0.000 C 
ATOM   2440  C15 CER     1      -7.884 -25.924   5.791  1.00  0.00     0.000 C 
ATOM   2441  C15 CER     1      -5.454  28.006   5.723  1.00  0.00     0.000 C 
ATOM   2442  C15 CER     1     -13.526  27.081   5.706  1.00  0.00     0.000 C 
ATOM   2443  C15 CER     1       3.575 -32.383   5.883  1.00  0.00     0.000 C 
ATOM   2444  C15 CER     1     -27.114 -19.436   6.527  1.00  0.00     0.000 C 
ATOM   2445  C15 CER     1     -10.463 -31.255   5.745  1.00  0.00     0.000 C 
ATOM   2446  C15 CER     1      22.961 -24.043   5.602  1.00  0.00     0.000 C 
ATOM   2447  C15 CER     1      33.291  19.232   5.722  1.00  0.00     0.000 C 
ATOM   2448  C15 CER     1       1.130  36.771   5.723  1.00  0.00     0.000 C 
ATOM   2449  C15 CER     1      -2.162 -41.514   5.716  1.00  0.00     0.000 C 
ATOM   2450  C15 CER     1     -35.275 -14.247   5.722  1.00  0.00     0.000 C 
ATOM   2451  C15 CER     1      33.514 -27.205   5.818  1.00  0.00     0.000 C 
ATOM   2452  C15 CER     1      27.408  36.992   5.723  1.00  0.00     0.000 C 
ATOM   2453  C15 CER     1     -31.250  32.916   5.612  1.00  0.00     0.000 C 
ATOM   2454  C15 CER     1     -42.389  -1.004   5.715  1.00  0.00     0.000 C 
ATOM   2455  C15 CER     1      45.407   9.390   5.724  1.00  0.00     0.000 C 
ATOM   2456  C15 CER     1      34.154 -32.372   5.718  1.00  0.00     0.000 C 
ATOM   2457  C15 CER     1     -37.866  32.550   5.792  1.00  0.00     0.000 C 
ATOM   2458  C15 CER     1     -15.512  44.267   5.721  1.00  0.00     0.000 C 
ATOM   2459  C15 CER     1      -7.672  46.002   5.567  1.00  0.00     0.000 C 
ATOM   2460  C15 CER     1       9.088  47.154   5.694  1.00  0.00     0.000 C 
ATOM   2461  C15 CER     1     -30.654 -43.165   5.733  1.00  0.00     0.000 C 
ATOM   2462  C15 CER     1      39.689 -31.374   5.721  1.00  0.00     0.000 C 
ATOM   2463  C15 CER     1     -25.416 -47.548   5.717  1.00  0.00     0.000 C 
ATOM   2464  C15 CER     1       6.502 -53.043   5.723  1.00  0.00     0.000 C 
ATOM   2465  C15 CER     1      20.450 -48.302   5.723  1.00  0.00     0.000 C 
ATOM   2466  C15 CER     1      26.726  47.621   5.723  1.00  0.00     0.000 C 
ATOM   2467  C15 CER     1      34.042  36.997   5.722  1.00  0.00     0.000 C 
ATOM   2468  C15 CER     1     -47.282  20.095   5.828  1.00  0.00     0.000 C 
ATOM   2469  C15 CER     1     -35.752  41.769   5.723  1.00  0.00     0.000 C 
ATOM   2470  C15 CER     1     -51.505  -8.050   5.826  1.00  0.00     0.000 C 
ATOM   2471  C15 CER     1      31.818 -47.247   5.723  1.00  0.00     0.000 C 
ATOM   2472  C15 CER     1     -17.246 -50.034   5.771  1.00  0.00     0.000 C 
ATOM   2473  C15 CER     1     -45.103  28.796   5.970  1.00  0.00     0.000 C 
ATOM   2474  C15 CER     1      18.010  53.487   5.722  1.00  0.00     0.000 C 
ATOM   2475  C15 CER     1     -27.136  54.146   5.303  1.00  0.00     0.000 C 
ATOM   2476  C15 CER     1      52.345 -29.093   5.723  1.00  0.00     0.000 C 
ATOM   2477  C15 CER     1     -40.364 -46.582   5.665  1.00  0.00     0.000 C 
ATOM   2478  C15 CER     1     -30.698 -48.193   5.715  1.00  0.00     0.000 C 
ATOM   2479  C15 CER     1      36.318  46.066   5.723  1.00  0.00     0.000 C 
ATOM   2480  C15 CER     1      54.743  34.695   5.709  1.00  0.00     0.000 C 
ATOM   2481  C15 CER     1      40.164 -52.659   5.723  1.00  0.00     0.000 C 
ATOM   2482  C15 CER     1      50.165 -48.296   5.748  1.00  0.00     0.000 C 
ATOM   2483  C15 CER     1     -53.813  42.859   5.701  1.00  0.00     0.000 C 
ATOM   2484  C15 CER     1     -52.110 -56.047   5.722  1.00  0.00     0.000 C 
ATOM   2485  C16 CER     1      -3.328   5.361  21.875  1.00  0.00     0.188 C 
ATOM   2486  C16 CER     1     -12.261  -2.070  21.876  1.00  0.00     0.188 C 
ATOM   2487  C16 CER     1      12.138 -10.682  21.928  1.00  0.00     0.188 C 
ATOM   2488  C16 CER     1      -8.953  18.166  21.929  1.00  0.00     0.188 C 
ATOM   2489  C16 CER     1       8.470  19.506  21.890  1.00  0.00     0.188 C 
ATOM   2490  C16 CER     1     -17.878  15.410  21.884  1.00  0.00     0.188 C 
ATOM   2491  C16 CER     1       0.541  19.897  21.878  1.00  0.00     0.188 C 
ATOM   2492  C16 CER     1      15.995  11.458  21.899  1.00  0.00     0.188 C 
ATOM   2493  C16 CER     1     -30.657   9.762  21.885  1.00  0.00     0.188 C 
ATOM   2494  C16 CER     1     -11.955 -18.564  21.915  1.00  0.00     0.188 C 
ATOM   2495  C16 CER     1       2.817  30.394  21.925  1.00  0.00     0.188 C 
ATOM   2496  C16 CER     1     -10.398  35.022  21.948  1.00  0.00     0.188 C 
ATOM   2497  C16 CER     1       8.913 -39.654  21.903  1.00  0.00     0.188 C 
ATOM   2498  C16 CER     1     -29.749 -27.959  21.953  1.00  0.00     0.188 C 
ATOM   2499  C16 CER     1     -13.593 -39.311  21.865  1.00  0.00     0.188 C 
ATOM   2500  C16 CER     1      25.099 -32.327  21.890  1.00  0.00     0.188 C 
ATOM   2501  C16 CER     1      26.899  24.885  21.896  1.00  0.00     0.188 C 
ATOM   2502  C16 CER     1      -4.422  43.398  21.872  1.00  0.00     0.188 C 
ATOM   2503  C16 CER     1      -1.728 -32.938  21.876  1.00  0.00     0.188 C 
ATOM   2504  C16 CER     1     -42.989 -18.112  21.863  1.00  0.00     0.188 C 
ATOM   2505  C16 CER     1      33.147 -18.591  21.912  1.00  0.00     0.188 C 
ATOM   2506  C16 CER     1      21.095  31.087  21.896  1.00  0.00     0.188 C 
ATOM   2507  C16 CER     1     -22.834  32.198  21.882  1.00  0.00     0.188 C 
ATOM   2508  C16 CER     1     -46.337   6.669  21.887  1.00  0.00     0.188 C 
ATOM   2509  C16 CER     1      45.899   0.869  21.903  1.00  0.00     0.185 C 
ATOM   2510  C16 CER     1      28.837 -39.337  21.900  1.00  0.00     0.188 C 
ATOM   2511  C16 CER     1     -41.272  24.489  21.877  1.00  0.00     0.188 C 
ATOM   2512  C16 CER     1     -20.992  50.955  21.882  1.00  0.00     0.188 C 
ATOM   2513  C16 CER     1      -8.833  54.811  21.898  1.00  0.00     0.188 C 
ATOM   2514  C16 CER     1      16.436  51.591  21.867  1.00  0.00     0.188 C 
ATOM   2515  C16 CER     1     -30.303 -34.619  21.970  1.00  0.00     0.188 C 
ATOM   2516  C16 CER     1      47.920 -28.843  21.860  1.00  0.00     0.188 C 
ATOM   2517  C16 CER     1     -16.997 -45.713  21.891  1.00  0.00     0.188 C 
ATOM   2518  C16 CER     1      -0.911 -48.631  21.907  1.00  0.00     0.188 C 
ATOM   2519  C16 CER     1      29.037 -47.540  21.891  1.00  0.00     0.188 C 
ATOM   2520  C16 CER     1      26.767  38.993  21.879  1.00  0.00     0.188 C 
ATOM   2521  C16 CER     1      40.226  43.003  21.912  1.00  0.00     0.188 C 
ATOM   2522  C16 CER     1     -55.643  18.750  21.912  1.00  0.00     0.188 C 
ATOM   2523  C16 CER     1     -42.181  36.050  21.924  1.00  0.00     0.188 C 
ATOM   2524  C16 CER     1     -59.697  -5.533  21.824  1.00  0.00     0.185 C 
ATOM   2525  C16 CER     1      31.843 -38.579  22.051  1.00  0.00     0.032 C 
ATOM   2526  C16 CER     1     -13.252 -57.493  21.641  1.00  0.00     0.188 C 
ATOM   2527  C16 CER     1     -53.863  30.071  21.748  1.00  0.00     0.188 C 
ATOM   2528  C16 CER     1      26.647  52.815  21.873  1.00  0.00     0.188 C 
ATOM   2529  C16 CER     1     -22.274  46.615  21.860  1.00  0.00     0.188 C 
ATOM   2530  C16 CER     1      52.257 -20.470  21.859  1.00  0.00     0.188 C 
ATOM   2531  C16 CER     1     -35.641 -39.459  21.939  1.00  0.00     0.188 C 
ATOM   2532  C16 CER     1     -38.150 -52.218  21.681  1.00  0.00     0.188 C 
ATOM   2533  C16 CER     1      42.345  52.219  21.885  1.00  0.00     0.188 C 
ATOM   2534  C16 CER     1      46.165  35.008  21.903  1.00  0.00     0.188 C 
ATOM   2535  C16 CER     1      43.141 -44.618  21.915  1.00  0.00     0.188 C 
ATOM   2536  C16 CER     1      46.119 -40.666  21.910  1.00  0.00     0.188 C 
ATOM   2537  C16 CER     1     -48.963  49.868  21.919  1.00  0.00     0.188 C 
ATOM   2538  C16 CER     1     -48.291 -48.314  21.886  1.00  0.00     0.188 C 
ATOM   2539  C16 CER     1       0.253   3.969   3.031  1.00  0.00     0.005 C 
ATOM   2540  C16 CER     1     -12.693   1.733   3.047  1.00  0.00     0.005 C 
ATOM   2541  C16 CER     1       8.694  -8.576   3.414  1.00  0.00     0.005 C 
ATOM   2542  C16 CER     1      -6.079  15.713   2.970  1.00  0.00     0.005 C 
ATOM   2543  C16 CER     1      11.750  17.305   2.875  1.00  0.00     0.005 C 
ATOM   2544  C16 CER     1     -15.092  12.787   3.030  1.00  0.00     0.005 C 
ATOM   2545  C16 CER     1      -2.910  18.333   3.015  1.00  0.00     0.005 C 
ATOM   2546  C16 CER     1      15.663  15.272   3.022  1.00  0.00     0.005 C 
ATOM   2547  C16 CER     1     -26.860  10.046   3.033  1.00  0.00     0.005 C 
ATOM   2548  C16 CER     1      -8.589 -20.384   3.030  1.00  0.00     0.005 C 
ATOM   2549  C16 CER     1       0.269  27.551   3.031  1.00  0.00     0.005 C 
ATOM   2550  C16 CER     1      -9.855  31.528   3.133  1.00  0.00     0.005 C 
ATOM   2551  C16 CER     1       5.558 -37.974   3.013  1.00  0.00     0.005 C 
ATOM   2552  C16 CER     1     -30.379 -24.220   3.007  1.00  0.00     0.005 C 
ATOM   2553  C16 CER     1     -14.305 -35.557   3.036  1.00  0.00     0.005 C 
ATOM   2554  C16 CER     1      22.330 -29.691   3.037  1.00  0.00     0.005 C 
ATOM   2555  C16 CER     1      30.584  24.300   3.032  1.00  0.00     0.005 C 
ATOM   2556  C16 CER     1      -0.770  42.199   3.030  1.00  0.00     0.005 C 
ATOM   2557  C16 CER     1      -0.249 -35.773   2.438  1.00  0.00     0.005 C 
ATOM   2558  C16 CER     1     -40.997 -14.841   3.032  1.00  0.00     0.005 C 
ATOM   2559  C16 CER     1      35.330 -21.724   3.031  1.00  0.00     0.005 C 
ATOM   2560  C16 CER     1      22.095  34.784   3.031  1.00  0.00     0.005 C 
ATOM   2561  C16 CER     1     -26.211  30.380   3.031  1.00  0.00     0.005 C 
ATOM   2562  C16 CER     1     -43.246   4.594   3.010  1.00  0.00     0.005 C 
ATOM   2563  C16 CER     1      43.726   3.908   3.051  1.00  0.00     0.005 C 
ATOM   2564  C16 CER     1      29.389 -35.574   3.079  1.00  0.00     0.005 C 
ATOM   2565  C16 CER     1     -41.652  28.311   3.027  1.00  0.00     0.005 C 
ATOM   2566  C16 CER     1     -17.544  49.537   3.024  1.00  0.00     0.005 C 
ATOM   2567  C16 CER     1      -6.353  52.221   3.010  1.00  0.00     0.005 C 
ATOM   2568  C16 CER     1      14.777  48.259   3.066  1.00  0.00     0.005 C 
ATOM   2569  C16 CER     1     -28.411 -37.891   3.043  1.00  0.00     0.005 C 
ATOM   2570  C16 CER     1      45.405 -31.709   3.042  1.00  0.00     0.005 C 
ATOM   2571  C16 CER     1     -19.970 -48.154   2.941  1.00  0.00     0.005 C 
ATOM   2572  C16 CER     1       2.894 -48.564   3.034  1.00  0.00     0.005 C 
ATOM   2573  C16 CER     1      26.004 -49.790   3.031  1.00  0.00     0.005 C 
ATOM   2574  C16 CER     1      24.738  42.225   3.030  1.00  0.00     0.005 C 
ATOM   2575  C16 CER     1      39.279  39.290   3.057  1.00  0.00     0.005 C 
ATOM   2576  C16 CER     1     -52.716  21.173   3.030  1.00  0.00     0.005 C 
ATOM   2577  C16 CER     1     -40.938  39.448   2.902  1.00  0.00     0.005 C 
ATOM   2578  C16 CER     1     -55.833  -4.581   3.029  1.00  0.00     0.005 C 
ATOM   2579  C16 CER     1      33.635 -41.909   3.487  1.00  0.00     0.005 C 
ATOM   2580  C16 CER     1     -16.383 -55.477   3.022  1.00  0.00     0.005 C 
ATOM   2581  C16 CER     1     -50.348  31.291   3.034  1.00  0.00     0.005 C 
ATOM   2582  C16 CER     1      23.219  51.069   3.031  1.00  0.00     0.005 C 
ATOM   2583  C16 CER     1     -25.648  48.153   3.127  1.00  0.00     0.005 C 
ATOM   2584  C16 CER     1      54.365 -23.751   3.032  1.00  0.00     0.005 C 
ATOM   2585  C16 CER     1     -35.710 -43.274   3.028  1.00  0.00     0.005 C 
ATOM   2586  C16 CER     1     -36.284 -49.135   3.016  1.00  0.00     0.005 C 
ATOM   2587  C16 CER     1      41.540  48.497   2.984  1.00  0.00     0.005 C 
ATOM   2588  C16 CER     1      49.432  36.893   3.027  1.00  0.00     0.005 C 
ATOM   2589  C16 CER     1      43.968 -48.345   3.032  1.00  0.00     0.005 C 
ATOM   2590  C16 CER     1      49.393 -42.598   3.030  1.00  0.00     0.005 C 
ATOM   2591  C16 CER     1     -49.143  46.023   3.129  1.00  0.00     0.005 C 
ATOM   2592  C16 CER     1     -48.222 -52.515   3.013  1.00  0.00     0.005 C 
ATOM   2593  C16 CER     1       2.692  -1.889   4.441  1.00  0.00    -0.000 C 
ATOM   2594  C16 CER     1      -9.100   6.775   4.460  1.00  0.00    -0.000 C 
ATOM   2595  C16 CER     1       6.538  -3.201   4.452  1.00  0.00    -0.000 C 
ATOM   2596  C16 CER     1      -5.369   9.432   4.516  1.00  0.00    -0.000 C 
ATOM   2597  C16 CER     1      12.742  11.166   4.547  1.00  0.00    -0.000 C 
ATOM   2598  C16 CER     1     -15.025   6.481   4.455  1.00  0.00    -0.000 C 
ATOM   2599  C16 CER     1      -8.861  20.622   4.453  1.00  0.00    -0.000 C 
ATOM   2600  C16 CER     1      19.797  20.069   4.454  1.00  0.00    -0.000 C 
ATOM   2601  C16 CER     1     -22.185   5.750   4.454  1.00  0.00    -0.000 C 
ATOM   2602  C16 CER     1      -7.272 -26.218   4.434  1.00  0.00    -0.000 C 
ATOM   2603  C16 CER     1      -6.076  27.373   4.455  1.00  0.00    -0.000 C 
ATOM   2604  C16 CER     1     -13.389  26.191   4.459  1.00  0.00    -0.000 C 
ATOM   2605  C16 CER     1       3.053 -32.000   4.450  1.00  0.00    -0.000 C 
ATOM   2606  C16 CER     1     -27.625 -18.787   4.819  1.00  0.00    -0.000 C 
ATOM   2607  C16 CER     1     -10.578 -30.336   4.521  1.00  0.00    -0.000 C 
ATOM   2608  C16 CER     1      22.330 -23.344   4.403  1.00  0.00    -0.000 C 
ATOM   2609  C16 CER     1      34.161  19.062   4.453  1.00  0.00    -0.000 C 
ATOM   2610  C16 CER     1       1.963  36.468   4.454  1.00  0.00    -0.000 C 
ATOM   2611  C16 CER     1      -1.938 -42.340   4.441  1.00  0.00    -0.000 C 
ATOM   2612  C16 CER     1     -34.788 -13.506   4.453  1.00  0.00    -0.000 C 
ATOM   2613  C16 CER     1      34.022 -28.081   4.672  1.00  0.00    -0.000 C 
ATOM   2614  C16 CER     1      27.663  37.845   4.459  1.00  0.00    -0.000 C 
ATOM   2615  C16 CER     1     -31.913  32.563   4.256  1.00  0.00    -0.000 C 
ATOM   2616  C16 CER     1     -41.658  -1.500   4.441  1.00  0.00    -0.000 C 
ATOM   2617  C16 CER     1      44.926  10.118   4.450  1.00  0.00    -0.000 C 
ATOM   2618  C16 CER     1      34.257 -31.524   4.440  1.00  0.00    -0.000 C 
ATOM   2619  C16 CER     1     -37.734  33.248   4.431  1.00  0.00    -0.000 C 
ATOM   2620  C16 CER     1     -14.675  43.972   4.454  1.00  0.00    -0.000 C 
ATOM   2621  C16 CER     1      -6.934  45.545   4.306  1.00  0.00    -0.000 C 
ATOM   2622  C16 CER     1       8.685  46.329   4.446  1.00  0.00    -0.000 C 
ATOM   2623  C16 CER     1     -30.247 -43.917   4.453  1.00  0.00    -0.000 C 
ATOM   2624  C16 CER     1      39.077 -32.031   4.460  1.00  0.00    -0.000 C 
ATOM   2625  C16 CER     1     -26.085 -48.149   4.456  1.00  0.00    -0.000 C 
ATOM   2626  C16 CER     1       7.389 -53.049   4.454  1.00  0.00    -0.000 C 
ATOM   2627  C16 CER     1      19.731 -48.823   4.456  1.00  0.00    -0.000 C 
ATOM   2628  C16 CER     1      26.275  48.383   4.454  1.00  0.00    -0.000 C 
ATOM   2629  C16 CER     1      33.799  36.143   4.455  1.00  0.00    -0.000 C 
ATOM   2630  C16 CER     1     -46.527  20.602   4.610  1.00  0.00    -0.000 C 
ATOM   2631  C16 CER     1     -35.469  42.611   4.455  1.00  0.00    -0.000 C 
ATOM   2632  C16 CER     1     -50.822  -7.691   4.495  1.00  0.00    -0.000 C 
ATOM   2633  C16 CER     1      32.290 -47.998   4.455  1.00  0.00    -0.000 C 
ATOM   2634  C16 CER     1     -17.757 -49.694   4.386  1.00  0.00    -0.000 C 
ATOM   2635  C16 CER     1     -44.681  28.737   4.446  1.00  0.00    -0.000 C 
ATOM   2636  C16 CER     1      17.212  53.095   4.455  1.00  0.00    -0.000 C 
ATOM   2637  C16 CER     1     -28.124  54.315   4.179  1.00  0.00    -0.000 C 
ATOM   2638  C16 CER     1      52.789 -29.881   4.467  1.00  0.00    -0.000 C 
ATOM   2639  C16 CER     1     -40.427 -47.273   4.262  1.00  0.00    -0.000 C 
ATOM   2640  C16 CER     1     -30.234 -47.453   4.442  1.00  0.00    -0.000 C 
ATOM   2641  C16 CER     1      36.097  45.206   4.454  1.00  0.00    -0.000 C 
ATOM   2642  C16 CER     1      55.527  35.113   4.448  1.00  0.00    -0.000 C 
ATOM   2643  C16 CER     1      40.310 -53.533   4.454  1.00  0.00    -0.000 C 
ATOM   2644  C16 CER     1      50.896 -48.775   4.493  1.00  0.00    -0.000 C 
ATOM   2645  C16 CER     1     -53.940  42.263   4.264  1.00  0.00    -0.000 C 
ATOM   2646  C16 CER     1     -52.050 -56.932   4.453  1.00  0.00    -0.000 C 
ATOM   2647  C17 CER     1       3.014  -0.717   3.492  1.00  0.00    -0.005 C 
ATOM   2648  C17 CER     1     -10.264   6.472   3.493  1.00  0.00    -0.005 C 
ATOM   2649  C17 CER     1       6.153  -4.353   3.497  1.00  0.00    -0.005 C 
ATOM   2650  C17 CER     1      -4.740  10.415   3.588  1.00  0.00    -0.005 C 
ATOM   2651  C17 CER     1      13.225  12.353   3.745  1.00  0.00    -0.005 C 
ATOM   2652  C17 CER     1     -14.285   7.410   3.482  1.00  0.00    -0.005 C 
ATOM   2653  C17 CER     1      -8.241  19.579   3.496  1.00  0.00    -0.005 C 
ATOM   2654  C17 CER     1      18.608  19.832   3.496  1.00  0.00    -0.005 C 
ATOM   2655  C17 CER     1     -22.388   6.947   3.497  1.00  0.00    -0.005 C 
ATOM   2656  C17 CER     1      -6.575 -25.262   3.473  1.00  0.00    -0.005 C 
ATOM   2657  C17 CER     1      -5.099  26.658   3.496  1.00  0.00    -0.005 C 
ATOM   2658  C17 CER     1     -12.217  26.520   3.525  1.00  0.00    -0.005 C 
ATOM   2659  C17 CER     1       2.945 -33.169   3.442  1.00  0.00    -0.005 C 
ATOM   2660  C17 CER     1     -28.390 -19.208   3.489  1.00  0.00    -0.005 C 
ATOM   2661  C17 CER     1     -11.724 -30.658   3.605  1.00  0.00    -0.005 C 
ATOM   2662  C17 CER     1      21.581 -24.299   3.470  1.00  0.00    -0.005 C 
ATOM   2663  C17 CER     1      34.234  20.271   3.495  1.00  0.00    -0.005 C 
ATOM   2664  C17 CER     1       2.220  37.653   3.496  1.00  0.00    -0.005 C 
ATOM   2665  C17 CER     1      -1.008 -41.690   3.446  1.00  0.00    -0.005 C 
ATOM   2666  C17 CER     1     -35.882 -12.981   3.496  1.00  0.00    -0.005 C 
ATOM   2667  C17 CER     1      34.849 -27.311   3.762  1.00  0.00    -0.005 C 
ATOM   2668  C17 CER     1      26.467  38.025   3.501  1.00  0.00    -0.005 C 
ATOM   2669  C17 CER     1     -31.435  31.371   3.417  1.00  0.00    -0.005 C 
ATOM   2670  C17 CER     1     -41.203  -0.431   3.429  1.00  0.00    -0.005 C 
ATOM   2671  C17 CER     1      44.042   9.289   3.493  1.00  0.00    -0.005 C 
ATOM   2672  C17 CER     1      33.048 -31.506   3.502  1.00  0.00    -0.005 C 
ATOM   2673  C17 CER     1     -38.865  32.942   3.454  1.00  0.00    -0.005 C 
ATOM   2674  C17 CER     1     -14.428  45.160   3.497  1.00  0.00    -0.005 C 
ATOM   2675  C17 CER     1      -6.199  46.535   3.376  1.00  0.00    -0.005 C 
ATOM   2676  C17 CER     1       9.824  45.899   3.493  1.00  0.00    -0.005 C 
ATOM   2677  C17 CER     1     -29.248 -43.252   3.495  1.00  0.00    -0.005 C 
ATOM   2678  C17 CER     1      40.075 -32.737   3.515  1.00  0.00    -0.005 C 
ATOM   2679  C17 CER     1     -25.159 -48.930   3.497  1.00  0.00    -0.005 C 
ATOM   2680  C17 CER     1       7.235 -51.846   3.497  1.00  0.00    -0.005 C 
ATOM   2681  C17 CER     1      20.568 -49.711   3.508  1.00  0.00    -0.005 C 
ATOM   2682  C17 CER     1      25.325  47.628   3.498  1.00  0.00    -0.005 C 
ATOM   2683  C17 CER     1      34.999  35.970   3.501  1.00  0.00    -0.005 C 
ATOM   2684  C17 CER     1     -47.391  21.367   3.580  1.00  0.00    -0.005 C 
ATOM   2685  C17 CER     1     -36.660  42.839   3.502  1.00  0.00    -0.005 C 
ATOM   2686  C17 CER     1     -51.045  -6.630   3.457  1.00  0.00    -0.005 C 
ATOM   2687  C17 CER     1      33.223 -47.224   3.498  1.00  0.00    -0.005 C 
ATOM   2688  C17 CER     1     -18.452 -50.792   3.533  1.00  0.00    -0.005 C 
ATOM   2689  C17 CER     1     -45.199  29.752   3.441  1.00  0.00    -0.005 C 
ATOM   2690  C17 CER     1      17.880  52.084   3.497  1.00  0.00    -0.005 C 
ATOM   2691  C17 CER     1     -28.409  52.978   3.426  1.00  0.00    -0.005 C 
ATOM   2692  C17 CER     1      53.744 -29.154   3.497  1.00  0.00    -0.005 C 
ATOM   2693  C17 CER     1     -39.174 -47.311   3.408  1.00  0.00    -0.005 C 
ATOM   2694  C17 CER     1     -31.346 -46.951   3.495  1.00  0.00    -0.005 C 
ATOM   2695  C17 CER     1      37.301  45.065   3.496  1.00  0.00    -0.005 C 
ATOM   2696  C17 CER     1      54.812  36.095   3.499  1.00  0.00    -0.005 C 
ATOM   2697  C17 CER     1      41.469 -53.177   3.497  1.00  0.00    -0.005 C 
ATOM   2698  C17 CER     1      51.351 -47.666   3.554  1.00  0.00    -0.005 C 
ATOM   2699  C17 CER     1     -52.671  41.976   3.456  1.00  0.00    -0.005 C 
ATOM   2700  C17 CER     1     -50.861 -56.690   3.496  1.00  0.00    -0.005 C 
ATOM   2701  C18 CER     1       1.924  -0.508   2.443  1.00  0.00     0.005 C 
ATOM   2702  C18 CER     1      -9.885   5.430   2.444  1.00  0.00     0.005 C 
ATOM   2703  C18 CER     1       7.229  -4.618   2.446  1.00  0.00     0.005 C 
ATOM   2704  C18 CER     1      -5.840  10.798   2.650  1.00  0.00     0.005 C 
ATOM   2705  C18 CER     1      12.204  12.775   2.646  1.00  0.00     0.005 C 
ATOM   2706  C18 CER     1     -15.226   8.006   2.442  1.00  0.00     0.005 C 
ATOM   2707  C18 CER     1      -7.334  20.217   2.446  1.00  0.00     0.005 C 
ATOM   2708  C18 CER     1      18.905  18.765   2.445  1.00  0.00     0.005 C 
ATOM   2709  C18 CER     1     -23.463   6.678   2.446  1.00  0.00     0.005 C 
ATOM   2710  C18 CER     1      -7.573 -24.986   2.388  1.00  0.00     0.005 C 
ATOM   2711  C18 CER     1      -4.514  27.601   2.446  1.00  0.00     0.005 C 
ATOM   2712  C18 CER     1     -12.625  27.535   2.493  1.00  0.00     0.005 C 
ATOM   2713  C18 CER     1       4.113 -33.400   2.448  1.00  0.00     0.005 C 
ATOM   2714  C18 CER     1     -27.772 -20.003   2.322  1.00  0.00     0.005 C 
ATOM   2715  C18 CER     1     -11.229 -31.628   2.591  1.00  0.00     0.005 C 
ATOM   2716  C18 CER     1      22.516 -24.913   2.435  1.00  0.00     0.005 C 
ATOM   2717  C18 CER     1      33.125  20.252   2.445  1.00  0.00     0.005 C 
ATOM   2718  C18 CER     1       1.122  37.804   2.446  1.00  0.00     0.005 C 
ATOM   2719  C18 CER     1      -1.746 -40.831   2.415  1.00  0.00     0.005 C 
ATOM   2720  C18 CER     1     -36.284 -14.014   2.445  1.00  0.00     0.005 C 
ATOM   2721  C18 CER     1      33.561 -26.704   3.251  1.00  0.00     0.005 C 
ATOM   2722  C18 CER     1      26.401  36.892   2.479  1.00  0.00     0.005 C 
ATOM   2723  C18 CER     1     -30.626  32.020   2.360  1.00  0.00     0.005 C 
ATOM   2724  C18 CER     1     -42.216  -0.036   2.381  1.00  0.00     0.005 C 
ATOM   2725  C18 CER     1      44.827   8.517   2.451  1.00  0.00     0.005 C 
ATOM   2726  C18 CER     1      33.212 -32.607   2.476  1.00  0.00     0.005 C 
ATOM   2727  C18 CER     1     -38.508  31.861   2.435  1.00  0.00     0.005 C 
ATOM   2728  C18 CER     1     -15.528  45.303   2.447  1.00  0.00     0.005 C 
ATOM   2729  C18 CER     1      -6.933  47.388   2.362  1.00  0.00     0.005 C 
ATOM   2730  C18 CER     1      10.131  46.962   2.443  1.00  0.00     0.005 C 
ATOM   2731  C18 CER     1     -29.965 -42.417   2.447  1.00  0.00     0.005 C 
ATOM   2732  C18 CER     1      40.680 -31.787   2.493  1.00  0.00     0.005 C 
ATOM   2733  C18 CER     1     -24.513 -48.029   2.446  1.00  0.00     0.005 C 
ATOM   2734  C18 CER     1       6.149 -52.070   2.446  1.00  0.00     0.005 C 
ATOM   2735  C18 CER     1      21.328 -48.890   2.476  1.00  0.00     0.005 C 
ATOM   2736  C18 CER     1      26.075  46.815   2.446  1.00  0.00     0.005 C 
ATOM   2737  C18 CER     1      35.071  37.078   2.458  1.00  0.00     0.005 C 
ATOM   2738  C18 CER     1     -48.306  20.528   2.682  1.00  0.00     0.005 C 
ATOM   2739  C18 CER     1     -36.784  41.736   2.458  1.00  0.00     0.005 C 
ATOM   2740  C18 CER     1     -51.944  -7.211   2.391  1.00  0.00     0.005 C 
ATOM   2741  C18 CER     1      32.448 -46.427   2.452  1.00  0.00     0.005 C 
ATOM   2742  C18 CER     1     -17.495 -51.055   2.407  1.00  0.00     0.005 C 
ATOM   2743  C18 CER     1     -46.125  29.095   2.420  1.00  0.00     0.005 C 
ATOM   2744  C18 CER     1      18.754  52.767   2.446  1.00  0.00     0.005 C 
ATOM   2745  C18 CER     1     -27.301  52.688   2.422  1.00  0.00     0.005 C 
ATOM   2746  C18 CER     1      52.996 -28.335   2.447  1.00  0.00     0.005 C 
ATOM   2747  C18 CER     1     -39.337 -46.280   2.360  1.00  0.00     0.005 C 
ATOM   2748  C18 CER     1     -31.694 -47.996   2.441  1.00  0.00     0.005 C 
ATOM   2749  C18 CER     1      37.346  46.174   2.447  1.00  0.00     0.005 C 
ATOM   2750  C18 CER     1      53.967  35.381   2.447  1.00  0.00     0.005 C 
ATOM   2751  C18 CER     1      41.063 -52.146   2.446  1.00  0.00     0.005 C 
ATOM   2752  C18 CER     1      50.340 -47.294   2.468  1.00  0.00     0.005 C 
ATOM   2753  C18 CER     1     -52.757  43.027   2.392  1.00  0.00     0.005 C 
ATOM   2754  C18 CER     1     -51.166 -55.625   2.445  1.00  0.00     0.005 C 
ATOM   2755  NF  CER     1      -0.810   1.194  17.743  1.00  0.00    -0.352 N 
ATOM   2756  NF  CER     1      -9.952   2.213  17.727  1.00  0.00    -0.352 N 
ATOM   2757  NF  CER     1       9.895  -6.439  17.743  1.00  0.00    -0.352 N 
ATOM   2758  NF  CER     1      -7.829  13.476  17.723  1.00  0.00    -0.352 N 
ATOM   2759  NF  CER     1       9.756  15.122  17.748  1.00  0.00    -0.352 N 
ATOM   2760  NF  CER     1     -17.127  10.614  17.715  1.00  0.00    -0.352 N 
ATOM   2761  NF  CER     1      -3.290  21.242  18.224  1.00  0.00    -0.255 NA
ATOM   2762  NF  CER     1      18.624  15.546  17.716  1.00  0.00    -0.352 N 
ATOM   2763  NF  CER     1     -26.685   7.054  17.726  1.00  0.00    -0.352 N 
ATOM   2764  NF  CER     1     -10.016 -23.008  17.734  1.00  0.00    -0.352 N 
ATOM   2765  NF  CER     1      -1.968  29.560  17.708  1.00  0.00    -0.352 N 
ATOM   2766  NF  CER     1     -12.650  30.812  17.719  1.00  0.00    -0.352 N 
ATOM   2767  NF  CER     1       6.783 -35.311  17.731  1.00  0.00    -0.352 N 
ATOM   2768  NF  CER     1     -27.454 -23.681  17.725  1.00  0.00    -0.352 N 
ATOM   2769  NF  CER     1     -11.375 -34.990  17.715  1.00  0.00    -0.352 N 
ATOM   2770  NF  CER     1      24.378 -27.533  17.717  1.00  0.00    -0.352 N 
ATOM   2771  NF  CER     1      30.118  21.352  17.748  1.00  0.00    -0.352 N 
ATOM   2772  NF  CER     1      -1.690  39.374  17.730  1.00  0.00    -0.352 N 
ATOM   2773  NF  CER     1      -2.659 -37.718  17.736  1.00  0.00    -0.352 N 
ATOM   2774  NF  CER     1     -38.445 -16.412  17.718  1.00  0.00    -0.352 N 
ATOM   2775  NF  CER     1      32.855 -23.398  17.741  1.00  0.00    -0.352 N 
ATOM   2776  NF  CER     1      24.729  33.203  18.632  1.00  0.00    -0.268 NA
ATOM   2777  NF  CER     1     -27.636  32.995  17.729  1.00  0.00    -0.352 N 
ATOM   2778  NF  CER     1     -44.575   2.153  17.731  1.00  0.00    -0.352 N 
ATOM   2779  NF  CER     1      46.191   5.632  17.727  1.00  0.00    -0.352 N 
ATOM   2780  NF  CER     1      31.545 -35.316  18.242  1.00  0.00    -0.268 NA
ATOM   2781  NF  CER     1     -38.731  28.637  17.733  1.00  0.00    -0.352 N 
ATOM   2782  NF  CER     1     -18.513  46.746  17.668  1.00  0.00    -0.352 N 
ATOM   2783  NF  CER     1      -8.604  50.233  17.696  1.00  0.00    -0.352 N 
ATOM   2784  NF  CER     1      12.074  49.514  17.735  1.00  0.00    -0.352 N 
ATOM   2785  NF  CER     1     -30.151 -39.207  18.094  1.00  0.00    -0.352 N 
ATOM   2786  NF  CER     1      43.147 -29.776  17.735  1.00  0.00    -0.352 N 
ATOM   2787  NF  CER     1     -21.862 -46.242  17.724  1.00  0.00    -0.352 N 
ATOM   2788  NF  CER     1       2.964 -51.543  17.713  1.00  0.00    -0.352 N 
ATOM   2789  NF  CER     1      24.176 -47.440  17.732  1.00  0.00    -0.352 N 
ATOM   2790  NF  CER     1      27.240  43.783  17.744  1.00  0.00    -0.352 N 
ATOM   2791  NF  CER     1      36.423  40.000  17.732  1.00  0.00    -0.352 N 
ATOM   2792  NF  CER     1     -50.767  18.934  17.728  1.00  0.00    -0.352 N 
ATOM   2793  NF  CER     1     -38.263  38.877  17.718  1.00  0.00    -0.352 N 
ATOM   2794  NF  CER     1     -55.095  -7.466  17.723  1.00  0.00    -0.352 N 
ATOM   2795  NF  CER     1      31.143 -43.448  17.655  1.00  0.00    -0.352 N 
ATOM   2796  NF  CER     1     -14.915 -53.093  17.710  1.00  0.00    -0.352 N 
ATOM   2797  NF  CER     1     -49.329  28.482  17.723  1.00  0.00    -0.352 N 
ATOM   2798  NF  CER     1      22.052  54.215  17.942  1.00  0.00    -0.352 N 
ATOM   2799  NF  CER     1     -24.616  50.911  17.720  1.00  0.00    -0.352 N 
ATOM   2800  NF  CER     1      51.826 -25.161  17.733  1.00  0.00    -0.352 N 
ATOM   2801  NF  CER     1     -38.684 -43.176  17.743  1.00  0.00    -0.352 N 
ATOM   2802  NF  CER     1     -33.637 -50.597  17.788  1.00  0.00    -0.352 N 
ATOM   2803  NF  CER     1      38.616  49.128  17.730  1.00  0.00    -0.352 N 
ATOM   2804  NF  CER     1      50.594  34.825  18.163  1.00  0.00    -0.352 N 
ATOM   2805  NF  CER     1      41.049 -48.922  17.731  1.00  0.00    -0.352 N 
ATOM   2806  NF  CER     1      48.450 -45.341  17.250  1.00  0.00    -0.268 NA
ATOM   2807  NF  CER     1     -52.064  46.112  17.724  1.00  0.00    -0.352 N 
ATOM   2808  NF  CER     1     -50.842 -52.415  17.696  1.00  0.00    -0.352 N 
ATOM   2809  OF  CER     1      -0.257   3.339  18.041  1.00  0.00    -0.274 OA
ATOM   2810  OF  CER     1     -12.069   1.624  18.043  1.00  0.00    -0.274 OA
ATOM   2811  OF  CER     1       9.222  -8.563  18.034  1.00  0.00    -0.274 OA
ATOM   2812  OF  CER     1      -6.598  15.281  18.021  1.00  0.00    -0.274 OA
ATOM   2813  OF  CER     1      10.978  16.956  17.978  1.00  0.00    -0.274 OA
ATOM   2814  OF  CER     1     -15.822  12.377  18.066  1.00  0.00    -0.274 OA
ATOM   2815  OF  CER     1      -2.575  18.939  18.054  1.00  0.00    -0.280 OA
ATOM   2816  OF  CER     1      16.466  15.092  18.062  1.00  0.00    -0.274 OA
ATOM   2817  OF  CER     1     -27.039   9.236  18.041  1.00  0.00    -0.274 OA
ATOM   2818  OF  CER     1      -9.200 -20.950  18.045  1.00  0.00    -0.274 OA
ATOM   2819  OF  CER     1      -0.264  28.224  17.986  1.00  0.00    -0.274 OA
ATOM   2820  OF  CER     1     -10.547  31.491  18.053  1.00  0.00    -0.274 OA
ATOM   2821  OF  CER     1       6.091 -37.417  18.042  1.00  0.00    -0.274 OA
ATOM   2822  OF  CER     1     -29.573 -24.318  18.057  1.00  0.00    -0.274 OA
ATOM   2823  OF  CER     1     -13.475 -35.668  18.057  1.00  0.00    -0.274 OA
ATOM   2824  OF  CER     1      23.034 -29.302  18.021  1.00  0.00    -0.274 OA
ATOM   2825  OF  CER     1      30.208  23.579  18.050  1.00  0.00    -0.274 OA
ATOM   2826  OF  CER     1      -1.264  41.541  18.050  1.00  0.00    -0.274 OA
ATOM   2827  OF  CER     1      -0.812 -36.471  18.046  1.00  0.00    -0.274 OA
ATOM   2828  OF  CER     1     -40.432 -15.463  18.056  1.00  0.00    -0.274 OA
ATOM   2829  OF  CER     1      34.553 -21.970  18.031  1.00  0.00    -0.274 OA
ATOM   2830  OF  CER     1      22.480  33.947  18.252  1.00  0.00    -0.272 OA
ATOM   2831  OF  CER     1     -26.354  31.190  18.040  1.00  0.00    -0.274 OA
ATOM   2832  OF  CER     1     -43.671   4.190  18.032  1.00  0.00    -0.274 OA
ATOM   2833  OF  CER     1      44.529   4.225  18.024  1.00  0.00    -0.274 OA
ATOM   2834  OF  CER     1      29.470 -35.865  17.982  1.00  0.00    -0.272 OA
ATOM   2835  OF  CER     1     -40.887  28.132  18.046  1.00  0.00    -0.274 OA
ATOM   2836  OF  CER     1     -18.832  48.947  18.126  1.00  0.00    -0.274 OA
ATOM   2837  OF  CER     1      -7.076  51.832  18.013  1.00  0.00    -0.274 OA
ATOM   2838  OF  CER     1      14.165  48.782  18.074  1.00  0.00    -0.274 OA
ATOM   2839  OF  CER     1     -28.654 -37.739  17.958  1.00  0.00    -0.274 OA
ATOM   2840  OF  CER     1      44.972 -31.020  18.088  1.00  0.00    -0.274 OA
ATOM   2841  OF  CER     1     -20.137 -47.608  18.016  1.00  0.00    -0.274 OA
ATOM   2842  OF  CER     1       2.672 -49.363  18.060  1.00  0.00    -0.274 OA
ATOM   2843  OF  CER     1      25.727 -49.020  18.046  1.00  0.00    -0.274 OA
ATOM   2844  OF  CER     1      25.489  42.442  18.049  1.00  0.00    -0.274 OA
ATOM   2845  OF  CER     1      38.620  39.706  18.074  1.00  0.00    -0.274 OA
ATOM   2846  OF  CER     1     -52.399  20.446  18.036  1.00  0.00    -0.274 OA
ATOM   2847  OF  CER     1     -40.422  39.259  18.058  1.00  0.00    -0.274 OA
ATOM   2848  OF  CER     1     -55.911  -5.418  18.050  1.00  0.00    -0.274 OA
ATOM   2849  OF  CER     1      32.968 -42.362  17.851  1.00  0.00    -0.274 OA
ATOM   2850  OF  CER     1     -15.580 -55.150  17.757  1.00  0.00    -0.274 OA
ATOM   2851  OF  CER     1     -50.190  30.477  18.002  1.00  0.00    -0.274 OA
ATOM   2852  OF  CER     1      23.600  52.361  18.190  1.00  0.00    -0.274 OA
ATOM   2853  OF  CER     1     -25.204  48.779  18.040  1.00  0.00    -0.274 OA
ATOM   2854  OF  CER     1      53.610 -23.965  18.034  1.00  0.00    -0.274 OA
ATOM   2855  OF  CER     1     -36.491 -43.028  18.082  1.00  0.00    -0.274 OA
ATOM   2856  OF  CER     1     -35.559 -49.701  18.120  1.00  0.00    -0.274 OA
ATOM   2857  OF  CER     1      40.800  48.869  18.036  1.00  0.00    -0.274 OA
ATOM   2858  OF  CER     1      49.247  36.399  18.005  1.00  0.00    -0.274 OA
ATOM   2859  OF  CER     1      43.160 -48.232  18.035  1.00  0.00    -0.274 OA
ATOM   2860  OF  CER     1      49.388 -43.310  17.099  1.00  0.00    -0.272 OA
ATOM   2861  OF  CER     1     -49.850  46.228  18.000  1.00  0.00    -0.274 OA
ATOM   2862  OF  CER     1     -48.710 -51.938  18.052  1.00  0.00    -0.274 OA
ATOM   2863  HNF CER     1      -1.210   0.529  17.134  1.00  0.00     0.163 HD
ATOM   2864  HNF CER     1      -9.182   2.183  17.111  1.00  0.00     0.163 HD
ATOM   2865  HNF CER     1      10.273  -5.829  17.066  1.00  0.00     0.163 HD
ATOM   2866  HNF CER     1      -8.379  12.972  17.082  1.00  0.00     0.163 HD
ATOM   2867  HNF CER     1       9.438  14.475  17.069  1.00  0.00     0.163 HD
ATOM   2868  HNF CER     1     -17.726  10.160  17.077  1.00  0.00     0.163 HD
ATOM   2869  HNF CER     1      -3.700  21.169  17.341  1.00  0.00     0.131 HD
ATOM   2870  HNF CER     1      19.367  15.492  17.071  1.00  0.00     0.163 HD
ATOM   2871  HNF CER     1     -26.749   6.319  17.068  1.00  0.00     0.163 HD
ATOM   2872  HNF CER     1     -10.491 -23.591  17.098  1.00  0.00     0.163 HD
ATOM   2873  HNF CER     1      -2.433  30.161  17.087  1.00  0.00     0.163 HD
ATOM   2874  HNF CER     1     -13.414  30.802  17.093  1.00  0.00     0.163 HD
ATOM   2875  HNF CER     1       7.184 -34.689  17.071  1.00  0.00     0.163 HD
ATOM   2876  HNF CER     1     -26.702 -23.680  17.087  1.00  0.00     0.163 HD
ATOM   2877  HNF CER     1     -10.618 -34.977  17.084  1.00  0.00     0.163 HD
ATOM   2878  HNF CER     1      24.985 -27.079  17.084  1.00  0.00     0.163 HD
ATOM   2879  HNF CER     1      29.866  20.652  17.099  1.00  0.00     0.163 HD
ATOM   2880  HNF CER     1      -2.046  38.707  17.095  1.00  0.00     0.163 HD
ATOM   2881  HNF CER     1      -3.388 -37.934  17.106  1.00  0.00     0.163 HD
ATOM   2882  HNF CER     1     -37.883 -16.918  17.087  1.00  0.00     0.163 HD
ATOM   2883  HNF CER     1      32.187 -23.723  17.092  1.00  0.00     0.163 HD
ATOM   2884  HNF CER     1      25.063  33.112  17.717  1.00  0.00     0.190 HD
ATOM   2885  HNF CER     1     -27.872  33.728  17.115  1.00  0.00     0.163 HD
ATOM   2886  HNF CER     1     -45.052   1.575  17.089  1.00  0.00     0.163 HD
ATOM   2887  HNF CER     1      46.858   5.966  17.088  1.00  0.00     0.163 HD
ATOM   2888  HNF CER     1      32.249 -35.909  17.819  1.00  0.00     0.190 HD
ATOM   2889  HNF CER     1     -37.999  28.604  17.073  1.00  0.00     0.163 HD
ATOM   2890  HNF CER     1     -18.729  46.069  16.991  1.00  0.00     0.163 HD
ATOM   2891  HNF CER     1      -9.203  49.803  17.046  1.00  0.00     0.163 HD
ATOM   2892  HNF CER     1      11.468  49.973  17.106  1.00  0.00     0.163 HD
ATOM   2893  HNF CER     1     -31.005 -39.099  17.553  1.00  0.00     0.163 HD
ATOM   2894  HNF CER     1      42.682 -29.182  17.099  1.00  0.00     0.163 HD
ATOM   2895  HNF CER     1     -22.281 -45.607  17.098  1.00  0.00     0.163 HD
ATOM   2896  HNF CER     1       2.856 -52.285  17.070  1.00  0.00     0.163 HD
ATOM   2897  HNF CER     1      23.830 -46.752  17.113  1.00  0.00     0.163 HD
ATOM   2898  HNF CER     1      27.939  44.090  17.111  1.00  0.00     0.163 HD
ATOM   2899  HNF CER     1      35.738  40.308  17.092  1.00  0.00     0.163 HD
ATOM   2900  HNF CER     1     -50.392  18.265  17.105  1.00  0.00     0.163 HD
ATOM   2901  HNF CER     1     -37.589  38.524  17.094  1.00  0.00     0.163 HD
ATOM   2902  HNF CER     1     -55.023  -8.214  17.085  1.00  0.00     0.163 HD
ATOM   2903  HNF CER     1      30.414 -43.772  17.085  1.00  0.00     0.163 HD
ATOM   2904  HNF CER     1     -14.607 -52.390  17.091  1.00  0.00     0.163 HD
ATOM   2905  HNF CER     1     -49.163  27.751  17.085  1.00  0.00     0.163 HD
ATOM   2906  HNF CER     1      21.693  54.581  17.104  1.00  0.00     0.163 HD
ATOM   2907  HNF CER     1     -24.188  51.558  17.106  1.00  0.00     0.163 HD
ATOM   2908  HNF CER     1      51.176 -25.534  17.089  1.00  0.00     0.163 HD
ATOM   2909  HNF CER     1     -39.426 -43.057  17.094  1.00  0.00     0.163 HD
ATOM   2910  HNF CER     1     -33.084 -51.007  17.092  1.00  0.00     0.163 HD
ATOM   2911  HNF CER     1      37.920  49.415  17.092  1.00  0.00     0.163 HD
ATOM   2912  HNF CER     1      50.963  34.196  17.494  1.00  0.00     0.163 HD
ATOM   2913  HNF CER     1      40.295 -48.949  17.099  1.00  0.00     0.163 HD
ATOM   2914  HNF CER     1      47.629 -45.832  16.986  1.00  0.00     0.190 HD
ATOM   2915  HNF CER     1     -52.802  46.272  17.099  1.00  0.00     0.163 HD
ATOM   2916  HNF CER     1     -51.613 -52.347  17.082  1.00  0.00     0.163 HD
ATOM   2917  HO2 CER     1      -1.946   4.198  25.357  1.00  0.00     0.210 HD
ATOM   2918  HO2 CER     1     -11.974  -0.325  25.410  1.00  0.00     0.210 HD
ATOM   2919  HO2 CER     1      10.905  -9.477  25.363  1.00  0.00     0.210 HD
ATOM   2920  HO2 CER     1      -7.941  16.697  25.390  1.00  0.00     0.210 HD
ATOM   2921  HO2 CER     1       9.593  18.078  25.317  1.00  0.00     0.210 HD
ATOM   2922  HO2 CER     1     -17.054  13.872  25.404  1.00  0.00     0.210 HD
ATOM   2923  HO2 CER     1      -1.149  19.651  25.431  1.00  0.00     0.210 HD
ATOM   2924  HO2 CER     1      16.330  13.283  25.377  1.00  0.00     0.210 HD
ATOM   2925  HO2 CER     1     -28.939   9.326  25.382  1.00  0.00     0.210 HD
ATOM   2926  HO2 CER     1     -10.772 -19.842  25.320  1.00  0.00     0.210 HD
ATOM   2927  HO2 CER     1       1.212  29.506  25.357  1.00  0.00     0.210 HD
ATOM   2928  HO2 CER     1     -10.732  33.345  25.381  1.00  0.00     0.210 HD
ATOM   2929  HO2 CER     1       7.720 -38.403  25.360  1.00  0.00     0.210 HD
ATOM   2930  HO2 CER     1     -29.405 -26.289  25.378  1.00  0.00     0.210 HD
ATOM   2931  HO2 CER     1     -13.392 -37.526  25.388  1.00  0.00     0.210 HD
ATOM   2932  HO2 CER     1      24.271 -30.824  25.406  1.00  0.00     0.210 HD
ATOM   2933  HO2 CER     1      28.358  24.013  25.374  1.00  0.00     0.210 HD
ATOM   2934  HO2 CER     1      -3.005  42.330  25.367  1.00  0.00     0.210 HD
ATOM   2935  HO2 CER     1      -1.479 -34.724  25.348  1.00  0.00     0.210 HD
ATOM   2936  HO2 CER     1     -41.611 -16.995  25.350  1.00  0.00     0.210 HD
ATOM   2937  HO2 CER     1      33.668 -20.287  25.352  1.00  0.00     0.210 HD
ATOM   2938  HO2 CER     1      22.131  32.591  25.371  1.00  0.00     0.210 HD
ATOM   2939  HO2 CER     1     -24.640  31.944  25.363  1.00  0.00     0.210 HD
ATOM   2940  HO2 CER     1     -45.160   5.339  25.359  1.00  0.00     0.210 HD
ATOM   2941  HO2 CER     1      45.595   2.443  25.396  1.00  0.00     0.210 HD
ATOM   2942  HO2 CER     1      30.133 -37.897  25.479  1.00  0.00     0.210 HD
ATOM   2943  HO2 CER     1     -40.926  26.239  25.381  1.00  0.00     0.210 HD
ATOM   2944  HO2 CER     1     -19.634  49.756  25.352  1.00  0.00     0.210 HD
ATOM   2945  HO2 CER     1      -8.321  53.354  25.356  1.00  0.00     0.210 HD
ATOM   2946  HO2 CER     1      15.228  50.476  25.378  1.00  0.00     0.210 HD
ATOM   2947  HO2 CER     1     -29.960 -36.267  25.434  1.00  0.00     0.210 HD
ATOM   2948  HO2 CER     1      46.333 -29.727  25.369  1.00  0.00     0.210 HD
ATOM   2949  HO2 CER     1     -18.540 -46.490  25.394  1.00  0.00     0.210 HD
ATOM   2950  HO2 CER     1       0.742 -49.210  25.422  1.00  0.00     0.210 HD
ATOM   2951  HO2 CER     1      27.406 -48.041  25.393  1.00  0.00     0.210 HD
ATOM   2952  HO2 CER     1      26.474  40.646  25.355  1.00  0.00     0.210 HD
ATOM   2953  HO2 CER     1      39.249  41.528  25.365  1.00  0.00     0.210 HD
ATOM   2954  HO2 CER     1     -53.574  19.293  25.037  1.00  0.00     0.210 HD
ATOM   2955  HO2 CER     1     -41.197  37.540  25.353  1.00  0.00     0.210 HD
ATOM   2956  HO2 CER     1     -57.766  -5.776  25.137  1.00  0.00     0.210 HD
ATOM   2957  HO2 CER     1      31.913 -40.209  25.416  1.00  0.00     0.210 HD
ATOM   2958  HO2 CER     1     -14.552 -56.179  25.500  1.00  0.00     0.210 HD
ATOM   2959  HO2 CER     1     -52.076  30.065  25.348  1.00  0.00     0.210 HD
ATOM   2960  HO2 CER     1      24.838  52.528  25.341  1.00  0.00     0.210 HD
ATOM   2961  HO2 CER     1     -23.498  47.908  25.395  1.00  0.00     0.210 HD
ATOM   2962  HO2 CER     1      52.732 -22.192  25.420  1.00  0.00     0.210 HD
ATOM   2963  HO2 CER     1     -36.292 -41.114  25.381  1.00  0.00     0.210 HD
ATOM   2964  HO2 CER     1     -36.946 -51.310  25.330  1.00  0.00     0.210 HD
ATOM   2965  HO2 CER     1      41.341  50.703  25.337  1.00  0.00     0.210 HD
ATOM   2966  HO2 CER     1      47.920  35.400  25.393  1.00  0.00     0.210 HD
ATOM   2967  HO2 CER     1      42.958 -46.270  25.395  1.00  0.00     0.210 HD
ATOM   2968  HO2 CER     1      47.185 -42.011  25.391  1.00  0.00     0.210 HD
ATOM   2969  HO2 CER     1     -49.516  48.130  25.449  1.00  0.00     0.210 HD
ATOM   2970  HO2 CER     1     -48.726 -50.090  25.374  1.00  0.00     0.210 HD
ATOM   2971  HO3 CER     1       1.268  -0.884  20.194  1.00  0.00     0.210 HD
ATOM   2972  HO3 CER     1      -9.255   5.059  20.148  1.00  0.00     0.210 HD
ATOM   2973  HO3 CER     1       7.942  -4.316  20.166  1.00  0.00     0.210 HD
ATOM   2974  HO3 CER     1      -6.563  10.812  20.089  1.00  0.00     0.210 HD
ATOM   2975  HO3 CER     1      11.313  12.520  20.072  1.00  0.00     0.210 HD
ATOM   2976  HO3 CER     1     -15.990   7.955  20.187  1.00  0.00     0.210 HD
ATOM   2977  HO3 CER     1      -6.808  21.438  20.121  1.00  0.00     0.210 HD
ATOM   2978  HO3 CER     1      19.596  18.320  20.205  1.00  0.00     0.210 HD
ATOM   2979  HO3 CER     1     -23.897   6.043  20.156  1.00  0.00     0.210 HD
ATOM   2980  HO3 CER     1      -8.338 -25.204  20.127  1.00  0.00     0.210 HD
ATOM   2981  HO3 CER     1      -4.611  28.355  20.175  1.00  0.00     0.210 HD
ATOM   2982  HO3 CER     1     -13.309  28.032  20.202  1.00  0.00     0.210 HD
ATOM   2983  HO3 CER     1       4.870 -33.069  20.160  1.00  0.00     0.210 HD
ATOM   2984  HO3 CER     1     -26.753 -20.880  20.216  1.00  0.00     0.210 HD
ATOM   2985  HO3 CER     1     -10.696 -32.166  20.217  1.00  0.00     0.210 HD
ATOM   2986  HO3 CER     1      23.336 -24.846  20.202  1.00  0.00     0.210 HD
ATOM   2987  HO3 CER     1      32.560  19.767  20.171  1.00  0.00     0.210 HD
ATOM   2988  HO3 CER     1       0.457  37.420  20.187  1.00  0.00     0.210 HD
ATOM   2989  HO3 CER     1      -2.518 -40.621  20.209  1.00  0.00     0.210 HD
ATOM   2990  HO3 CER     1     -36.022 -14.759  20.185  1.00  0.00     0.210 HD
ATOM   2991  HO3 CER     1      33.365 -26.274  20.212  1.00  0.00     0.210 HD
ATOM   2992  HO3 CER     1      26.973  36.405  20.276  1.00  0.00     0.210 HD
ATOM   2993  HO3 CER     1     -30.477  32.755  20.174  1.00  0.00     0.210 HD
ATOM   2994  HO3 CER     1     -42.882  -0.239  20.160  1.00  0.00     0.210 HD
ATOM   2995  HO3 CER     1      45.571   8.479  20.186  1.00  0.00     0.210 HD
ATOM   2996  HO3 CER     1      33.815 -32.832  20.568  1.00  0.00     0.210 HD
ATOM   2997  HO3 CER     1     -37.882  31.465  20.152  1.00  0.00     0.210 HD
ATOM   2998  HO3 CER     1     -16.237  44.876  20.177  1.00  0.00     0.210 HD
ATOM   2999  HO3 CER     1      -7.737  47.382  20.106  1.00  0.00     0.210 HD
ATOM   3000  HO3 CER     1       9.825  47.666  20.163  1.00  0.00     0.210 HD
ATOM   3001  HO3 CER     1     -30.587 -42.271  20.492  1.00  0.00     0.210 HD
ATOM   3002  HO3 CER     1      40.572 -30.976  20.163  1.00  0.00     0.210 HD
ATOM   3003  HO3 CER     1     -24.568 -47.269  20.197  1.00  0.00     0.210 HD
ATOM   3004  HO3 CER     1       5.661 -52.678  20.148  1.00  0.00     0.210 HD
ATOM   3005  HO3 CER     1      21.357 -48.089  20.178  1.00  0.00     0.210 HD
ATOM   3006  HO3 CER     1      26.721  46.553  20.174  1.00  0.00     0.210 HD
ATOM   3007  HO3 CER     1      34.610  37.702  20.180  1.00  0.00     0.210 HD
ATOM   3008  HO3 CER     1     -47.998  19.725  20.206  1.00  0.00     0.210 HD
ATOM   3009  HO3 CER     1     -36.432  41.074  20.165  1.00  0.00     0.210 HD
ATOM   3010  HO3 CER     1     -52.221  -7.946  20.191  1.00  0.00     0.210 HD
ATOM   3011  HO3 CER     1      31.927 -46.159  20.008  1.00  0.00     0.210 HD
ATOM   3012  HO3 CER     1     -17.257 -50.716  19.885  1.00  0.00     0.210 HD
ATOM   3013  HO3 CER     1     -46.439  28.530  20.152  1.00  0.00     0.210 HD
ATOM   3014  HO3 CER     1      18.840  53.629  20.117  1.00  0.00     0.210 HD
ATOM   3015  HO3 CER     1     -26.603  53.085  20.193  1.00  0.00     0.210 HD
ATOM   3016  HO3 CER     1      52.236 -28.139  20.028  1.00  0.00     0.210 HD
ATOM   3017  HO3 CER     1     -39.941 -45.885  20.100  1.00  0.00     0.210 HD
ATOM   3018  HO3 CER     1     -31.448 -48.723  20.183  1.00  0.00     0.210 HD
ATOM   3019  HO3 CER     1      36.854  46.796  20.181  1.00  0.00     0.210 HD
ATOM   3020  HO3 CER     1      54.314  35.444  20.688  1.00  0.00     0.210 HD
ATOM   3021  HO3 CER     1      40.386 -51.771  20.165  1.00  0.00     0.210 HD
ATOM   3022  HO3 CER     1      49.656 -47.539  20.273  1.00  0.00     0.210 HD
ATOM   3023  HO3 CER     1     -53.377  43.519  20.159  1.00  0.00     0.210 HD
ATOM   3024  HO3 CER     1     -51.800 -55.216  19.963  1.00  0.00     0.210 HD
ATOM   3025  HO4 CER     1      -5.657   7.234  24.228  1.00  0.00     0.210 HD
ATOM   3026  HO4 CER     1     -12.626  -4.961  24.324  1.00  0.00     0.210 HD
ATOM   3027  HO4 CER     1      14.387 -12.668  24.304  1.00  0.00     0.210 HD
ATOM   3028  HO4 CER     1     -10.597  20.593  24.334  1.00  0.00     0.210 HD
ATOM   3029  HO4 CER     1       6.607  21.783  24.301  1.00  0.00     0.210 HD
ATOM   3030  HO4 CER     1     -19.370  17.877  24.321  1.00  0.00     0.210 HD
ATOM   3031  HO4 CER     1       3.416  20.362  24.257  1.00  0.00     0.210 HD
ATOM   3032  HO4 CER     1      15.431   8.595  24.280  1.00  0.00     0.210 HD
ATOM   3033  HO4 CER     1     -33.561  10.482  24.293  1.00  0.00     0.210 HD
ATOM   3034  HO4 CER     1     -14.021 -16.414  24.367  1.00  0.00     0.210 HD
ATOM   3035  HO4 CER     1       5.362  31.955  24.321  1.00  0.00     0.210 HD
ATOM   3036  HO4 CER     1     -10.032  38.065  24.442  1.00  0.00     0.210 HD
ATOM   3037  HO4 CER     1      11.048 -41.721  24.311  1.00  0.00     0.210 HD
ATOM   3038  HO4 CER     1     -30.070 -30.714  24.397  1.00  0.00     0.210 HD
ATOM   3039  HO4 CER     1     -13.866 -42.215  24.258  1.00  0.00     0.210 HD
ATOM   3040  HO4 CER     1      26.593 -34.843  24.383  1.00  0.00     0.210 HD
ATOM   3041  HO4 CER     1      24.197  26.172  24.298  1.00  0.00     0.210 HD
ATOM   3042  HO4 CER     1      -6.823  45.076  24.290  1.00  0.00     0.210 HD
ATOM   3043  HO4 CER     1      -2.256 -30.006  24.265  1.00  0.00     0.210 HD
ATOM   3044  HO4 CER     1     -45.223 -20.070  24.274  1.00  0.00     0.210 HD
ATOM   3045  HO4 CER     1      32.306 -15.710  24.280  1.00  0.00     0.210 HD
ATOM   3046  HO4 CER     1      19.493  28.647  24.230  1.00  0.00     0.210 HD
ATOM   3047  HO4 CER     1     -19.931  32.786  24.262  1.00  0.00     0.210 HD
ATOM   3048  HO4 CER     1     -48.290   8.860  24.280  1.00  0.00     0.210 HD
ATOM   3049  HO4 CER     1      46.936  -1.991  24.312  1.00  0.00     0.210 HD
ATOM   3050  HO4 CER     1      28.308 -42.255  24.391  1.00  0.00     0.210 HD
ATOM   3051  HO4 CER     1     -41.818  21.597  24.329  1.00  0.00     0.210 HD
ATOM   3052  HO4 CER     1     -23.525  52.482  24.284  1.00  0.00     0.210 HD
ATOM   3053  HO4 CER     1     -10.100  57.650  24.494  1.00  0.00     0.210 HD
ATOM   3054  HO4 CER     1      18.538  53.780  24.344  1.00  0.00     0.210 HD
ATOM   3055  HO4 CER     1     -30.987 -31.895  24.411  1.00  0.00     0.210 HD
ATOM   3056  HO4 CER     1      50.381 -27.240  24.250  1.00  0.00     0.210 HD
ATOM   3057  HO4 CER     1     -14.419 -44.356  24.317  1.00  0.00     0.210 HD
ATOM   3058  HO4 CER     1      -3.766 -47.851  24.294  1.00  0.00     0.210 HD
ATOM   3059  HO4 CER     1      31.814 -46.494  24.241  1.00  0.00     0.210 HD
ATOM   3060  HO4 CER     1      27.570  36.130  24.183  1.00  0.00     0.210 HD
ATOM   3061  HO4 CER     1      41.793  45.512  24.350  1.00  0.00     0.210 HD
ATOM   3062  HO4 CER     1     -58.393  17.437  24.358  1.00  0.00     0.210 HD
ATOM   3063  HO4 CER     1     -43.859  33.609  24.271  1.00  0.00     0.210 HD
ATOM   3064  HO4 CER     1     -62.666  -5.302  24.455  1.00  0.00     0.210 HD
ATOM   3065  HO4 CER     1      31.119 -35.831  24.728  1.00  0.00     0.210 HD
ATOM   3066  HO4 CER     1     -11.415 -60.091  24.259  1.00  0.00     0.210 HD
ATOM   3067  HO4 CER     1     -56.454  30.038  24.558  1.00  0.00     0.210 HD
ATOM   3068  HO4 CER     1      29.503  53.392  24.334  1.00  0.00     0.210 HD
ATOM   3069  HO4 CER     1     -19.908  44.906  24.298  1.00  0.00     0.210 HD
ATOM   3070  HO4 CER     1      51.546 -17.652  24.351  1.00  0.00     0.210 HD
ATOM   3071  HO4 CER     1     -34.671 -36.673  24.201  1.00  0.00     0.210 HD
ATOM   3072  HO4 CER     1     -40.356 -54.494  24.258  1.00  0.00     0.210 HD
ATOM   3073  HO4 CER     1      43.822  54.829  24.261  1.00  0.00     0.210 HD
ATOM   3074  HO4 CER     1      43.324  34.261  24.394  1.00  0.00     0.210 HD
ATOM   3075  HO4 CER     1      43.493 -41.723  24.318  1.00  0.00     0.210 HD
ATOM   3076  HO4 CER     1      44.065 -38.548  24.258  1.00  0.00     0.210 HD
ATOM   3077  HO4 CER     1     -47.843  52.565  24.359  1.00  0.00     0.210 HD
ATOM   3078  HO4 CER     1     -47.727 -45.416  24.226  1.00  0.00     0.210 HD
ATOM   3079  HO5 CER     1      -5.563   5.987  21.274  1.00  0.00     0.210 HD
ATOM   3080  HO5 CER     1     -11.608  -4.297  21.267  1.00  0.00     0.210 HD
ATOM   3081  HO5 CER     1      14.435 -11.394  21.322  1.00  0.00     0.210 HD
ATOM   3082  HO5 CER     1     -10.909  19.427  21.308  1.00  0.00     0.210 HD
ATOM   3083  HO5 CER     1       6.427  20.507  21.262  1.00  0.00     0.210 HD
ATOM   3084  HO5 CER     1     -19.726  16.770  21.270  1.00  0.00     0.210 HD
ATOM   3085  HO5 CER     1       2.477  21.066  21.241  1.00  0.00     0.210 HD
ATOM   3086  HO5 CER     1      16.463   9.197  21.313  1.00  0.00     0.210 HD
ATOM   3087  HO5 CER     1     -32.930   9.343  21.286  1.00  0.00     0.210 HD
ATOM   3088  HO5 CER     1     -14.028 -17.579  21.267  1.00  0.00     0.210 HD
ATOM   3089  HO5 CER     1       4.212  32.266  21.285  1.00  0.00     0.210 HD
ATOM   3090  HO5 CER     1     -10.509  37.534  21.635  1.00  0.00     0.210 HD
ATOM   3091  HO5 CER     1      11.090 -40.671  21.297  1.00  0.00     0.210 HD
ATOM   3092  HO5 CER     1     -29.071 -30.144  21.307  1.00  0.00     0.210 HD
ATOM   3093  HO5 CER     1     -12.877 -41.550  21.289  1.00  0.00     0.210 HD
ATOM   3094  HO5 CER     1      26.944 -33.782  21.270  1.00  0.00     0.210 HD
ATOM   3095  HO5 CER     1      24.565  24.966  21.516  1.00  0.00     0.210 HD
ATOM   3096  HO5 CER     1      -6.693  43.872  21.263  1.00  0.00     0.210 HD
ATOM   3097  HO5 CER     1      -3.018 -30.999  21.300  1.00  0.00     0.210 HD
ATOM   3098  HO5 CER     1     -43.857 -20.226  21.276  1.00  0.00     0.210 HD
ATOM   3099  HO5 CER     1      31.652 -16.809  21.279  1.00  0.00     0.210 HD
ATOM   3100  HO5 CER     1      20.541  29.010  21.300  1.00  0.00     0.210 HD
ATOM   3101  HO5 CER     1     -20.926  33.548  21.275  1.00  0.00     0.210 HD
ATOM   3102  HO5 CER     1     -48.457   7.613  21.297  1.00  0.00     0.210 HD
ATOM   3103  HO5 CER     1      47.494  -0.826  21.267  1.00  0.00     0.210 HD
ATOM   3104  HO5 CER     1      29.252 -41.764  21.577  1.00  0.00     0.210 HD
ATOM   3105  HO5 CER     1     -40.762  22.296  21.275  1.00  0.00     0.210 HD
ATOM   3106  HO5 CER     1     -23.332  51.275  21.502  1.00  0.00     0.210 HD
ATOM   3107  HO5 CER     1     -10.706  56.486  21.111  1.00  0.00     0.210 HD
ATOM   3108  HO5 CER     1      17.252  53.774  21.182  1.00  0.00     0.210 HD
ATOM   3109  HO5 CER     1     -31.635 -32.718  21.295  1.00  0.00     0.210 HD
ATOM   3110  HO5 CER     1      49.296 -26.947  21.275  1.00  0.00     0.210 HD
ATOM   3111  HO5 CER     1     -15.543 -43.930  21.299  1.00  0.00     0.210 HD
ATOM   3112  HO5 CER     1      -3.313 -48.842  21.333  1.00  0.00     0.210 HD
ATOM   3113  HO5 CER     1      30.710 -45.913  21.388  1.00  0.00     0.210 HD
ATOM   3114  HO5 CER     1      28.240  37.120  21.283  1.00  0.00     0.210 HD
ATOM   3115  HO5 CER     1      40.598  45.326  21.281  1.00  0.00     0.210 HD
ATOM   3116  HO5 CER     1     -57.165  17.019  21.219  1.00  0.00     0.210 HD
ATOM   3117  HO5 CER     1     -42.623  33.791  21.272  1.00  0.00     0.210 HD
ATOM   3118  HO5 CER     1     -61.911  -6.254  21.258  1.00  0.00     0.210 HD
ATOM   3119  HO5 CER     1      29.295 -36.631  23.170  1.00  0.00     0.253 HD
ATOM   3120  HO5 CER     1     -10.840 -58.209  21.314  1.00  0.00     0.210 HD
ATOM   3121  HO5 CER     1     -55.991  28.883  21.051  1.00  0.00     0.210 HD
ATOM   3122  HO5 CER     1      28.538  54.116  21.259  1.00  0.00     0.210 HD
ATOM   3123  HO5 CER     1     -19.971  46.199  21.435  1.00  0.00     0.210 HD
ATOM   3124  HO5 CER     1      50.882 -18.821  21.254  1.00  0.00     0.210 HD
ATOM   3125  HO5 CER     1     -35.830 -37.132  21.279  1.00  0.00     0.210 HD
ATOM   3126  HO5 CER     1     -38.969 -54.597  21.112  1.00  0.00     0.210 HD
ATOM   3127  HO5 CER     1      42.684  54.455  21.345  1.00  0.00     0.210 HD
ATOM   3128  HO5 CER     1      44.382  33.429  21.630  1.00  0.00     0.210 HD
ATOM   3129  HO5 CER     1      42.485 -42.421  21.300  1.00  0.00     0.210 HD
ATOM   3130  HO5 CER     1      43.942 -39.804  21.321  1.00  0.00     0.210 HD
ATOM   3131  HO5 CER     1     -48.999  52.059  21.280  1.00  0.00     0.210 HD
ATOM   3132  HO5 CER     1     -48.827 -46.067  21.284  1.00  0.00     0.210 HD
ATOM   3133 3HOI CER     1      -3.041   6.948  26.295  1.00  0.00     0.210 HD
ATOM   3134 3HOI CER     1     -13.665  -2.648  26.262  1.00  0.00     0.210 HD
ATOM   3135 3HOI CER     1      11.874 -12.211  26.323  1.00  0.00     0.210 HD
ATOM   3136 3HOI CER     1      -8.229  19.633  26.309  1.00  0.00     0.210 HD
ATOM   3137 3HOI CER     1       9.040  20.958  26.263  1.00  0.00     0.210 HD
ATOM   3138 3HOI CER     1     -17.145  16.710  26.317  1.00  0.00     0.210 HD
ATOM   3139 3HOI CER     1       1.436  18.676  26.308  1.00  0.00     0.210 HD
ATOM   3140 3HOI CER     1      14.518  10.999  26.281  1.00  0.00     0.210 HD
ATOM   3141 3HOI CER     1     -31.097  11.227  26.282  1.00  0.00     0.210 HD
ATOM   3142 3HOI CER     1     -11.511 -17.063  26.270  1.00  0.00     0.210 HD
ATOM   3143 3HOI CER     1       4.162  29.634  26.301  1.00  0.00     0.210 HD
ATOM   3144 3HOI CER     1      -9.121  35.763  26.284  1.00  0.00     0.210 HD
ATOM   3145 3HOI CER     1       8.563 -41.157  26.267  1.00  0.00     0.210 HD
ATOM   3146 3HOI CER     1     -31.214 -28.594  26.220  1.00  0.00     0.210 HD
ATOM   3147 3HOI CER     1     -14.995 -39.946  26.296  1.00  0.00     0.210 HD
ATOM   3148 3HOI CER     1      24.279 -33.699  26.245  1.00  0.00     0.210 HD
ATOM   3149 3HOI CER     1      26.679  26.444  26.265  1.00  0.00     0.210 HD
ATOM   3150 3HOI CER     1      -4.297  44.992  26.198  1.00  0.00     0.210 HD
ATOM   3151 3HOI CER     1      -0.551 -32.013  26.331  1.00  0.00     0.210 HD
ATOM   3152 3HOI CER     1     -44.402 -17.585  26.289  1.00  0.00     0.210 HD
ATOM   3153 3HOI CER     1      34.222 -17.402  26.264  1.00  0.00     0.210 HD
ATOM   3154 3HOI CER     1      19.577  31.160  26.327  1.00  0.00     0.210 HD
ATOM   3155 3HOI CER     1     -21.835  31.057  26.274  1.00  0.00     0.210 HD
ATOM   3156 3HOI CER     1     -45.840   8.172  26.264  1.00  0.00     0.210 HD
ATOM   3157 3HOI CER     1      44.944  -0.316  26.302  1.00  0.00     0.210 HD
ATOM   3158 3HOI CER     1      27.335 -39.549  26.414  1.00  0.00     0.210 HD
ATOM   3159 3HOI CER     1     -42.752  24.056  26.287  1.00  0.00     0.210 HD
ATOM   3160 3HOI CER     1     -20.973  52.338  26.289  1.00  0.00     0.210 HD
ATOM   3161 3HOI CER     1      -7.947  56.147  26.044  1.00  0.00     0.210 HD
ATOM   3162 3HOI CER     1      17.925  51.297  26.278  1.00  0.00     0.210 HD
ATOM   3163 3HOI CER     1     -29.163 -33.566  26.284  1.00  0.00     0.210 HD
ATOM   3164 3HOI CER     1      49.327 -29.575  26.276  1.00  0.00     0.210 HD
ATOM   3165 3HOI CER     1     -15.767 -46.483  26.295  1.00  0.00     0.210 HD
ATOM   3166 3HOI CER     1      -1.275 -47.108  26.312  1.00  0.00     0.210 HD
ATOM   3167 3HOI CER     1      30.194 -48.440  26.322  1.00  0.00     0.210 HD
ATOM   3168 3HOI CER     1      25.589  37.892  26.323  1.00  0.00     0.210 HD
ATOM   3169 3HOI CER     1      41.836  42.972  26.280  1.00  0.00     0.210 HD
ATOM   3170 3HOI CER     1     -56.995  19.418  26.313  1.00  0.00     0.210 HD
ATOM   3171 3HOI CER     1     -43.807  36.160  26.243  1.00  0.00     0.210 HD
ATOM   3172 3HOI CER     1     -59.652  -3.989  26.398  1.00  0.00     0.210 HD
ATOM   3173 3HOI CER     1      32.702 -37.550  26.335  1.00  0.00     0.210 HD
ATOM   3174 3HOI CER     1     -13.466 -59.099  26.169  1.00  0.00     0.210 HD
ATOM   3175 3HOI CER     1     -54.541  31.312  26.274  1.00  0.00     0.210 HD
ATOM   3176 3HOI CER     1      27.606  51.671  26.326  1.00  0.00     0.210 HD
ATOM   3177 3HOI CER     1     -22.392  45.275  26.236  1.00  0.00     0.210 HD
ATOM   3178 3HOI CER     1      53.429 -19.421  26.330  1.00  0.00     0.210 HD
ATOM   3179 3HOI CER     1     -34.213 -39.079  26.219  1.00  0.00     0.210 HD
ATOM   3180 3HOI CER     1     -39.550 -52.035  26.276  1.00  0.00     0.210 HD
ATOM   3181 3HOI CER     1      43.954  52.169  26.294  1.00  0.00     0.210 HD
ATOM   3182 3HOI CER     1      45.057  36.155  26.301  1.00  0.00     0.210 HD
ATOM   3183 3HOI CER     1      44.627 -43.899  26.221  1.00  0.00     0.210 HD
ATOM   3184 3HOI CER     1      46.449 -39.292  26.249  1.00  0.00     0.210 HD
ATOM   3185 3HOI CER     1     -47.269  50.031  26.244  1.00  0.00     0.210 HD
ATOM   3186 3HOI CER     1     -46.794 -47.807  26.256  1.00  0.00     0.210 HD
ATOM   3187  H4S CER     1      54.579  33.959  16.742  1.00  0.00     0.000 HD
ATOM   3188  C1  BMA     2      -2.929   6.677  20.021  1.00  0.00     0.292 C 
ATOM   3189  C1  BMA     2     -13.576  -2.489  20.003  1.00  0.00     0.292 C 
ATOM   3190  C1  BMA     2      11.811 -11.867  19.902  1.00  0.00     0.292 C 
ATOM   3191  C1  BMA     2      -8.398  19.161  19.971  1.00  0.00     0.292 C 
ATOM   3192  C1  BMA     2       9.047  20.693  20.046  1.00  0.00     0.292 C 
ATOM   3193  C1  BMA     2     -17.034  16.498  20.049  1.00  0.00     0.292 C 
ATOM   3194  C1  BMA     2       1.234  18.717  19.998  1.00  0.00     0.292 C 
ATOM   3195  C1  BMA     2      14.715  11.057  20.067  1.00  0.00     0.292 C 
ATOM   3196  C1  BMA     2     -30.812  11.117  19.983  1.00  0.00     0.292 C 
ATOM   3197  C1  BMA     2     -11.625 -17.357  20.062  1.00  0.00     0.292 C 
ATOM   3198  C1  BMA     2       3.908  29.469  20.179  1.00  0.00     0.292 C 
ATOM   3199  C1  BMA     2      -8.969  35.202  20.051  1.00  0.00     0.292 C 
ATOM   3200  C1  BMA     2       8.566 -40.905  20.030  1.00  0.00     0.292 C 
ATOM   3201  C1  BMA     2     -31.132 -28.397  20.115  1.00  0.00     0.292 C 
ATOM   3202  C1  BMA     2     -14.954 -39.717  20.015  1.00  0.00     0.292 C 
ATOM   3203  C1  BMA     2      24.216 -33.336  20.049  1.00  0.00     0.292 C 
ATOM   3204  C1  BMA     2      27.042  26.347  19.989  1.00  0.00     0.292 C 
ATOM   3205  C1  BMA     2      -4.093  44.722  20.043  1.00  0.00     0.292 C 
ATOM   3206  C1  BMA     2      -0.542 -32.141  20.054  1.00  0.00     0.292 C 
ATOM   3207  C1  BMA     2     -44.240 -17.547  19.961  1.00  0.00     0.292 C 
ATOM   3208  C1  BMA     2      34.193 -17.854  20.120  1.00  0.00     0.292 C 
ATOM   3209  C1  BMA     2      19.766  31.292  20.009  1.00  0.00     0.292 C 
ATOM   3210  C1  BMA     2     -22.018  31.097  20.023  1.00  0.00     0.292 C 
ATOM   3211  C1  BMA     2     -45.781   7.908  20.015  1.00  0.00     0.292 C 
ATOM   3212  C1  BMA     2      44.282   0.017  20.083  1.00  0.00     0.185 C 
ATOM   3213  C1  BMA     2      27.835 -39.571  20.005  1.00  0.00     0.292 C 
ATOM   3214  C1  BMA     2     -42.656  24.171  20.053  1.00  0.00     0.292 C 
ATOM   3215  C1  BMA     2     -20.884  52.233  20.007  1.00  0.00     0.292 C 
ATOM   3216  C1  BMA     2      -8.197  55.715  20.050  1.00  0.00     0.292 C 
ATOM   3217  C1  BMA     2      17.786  51.096  20.058  1.00  0.00     0.292 C 
ATOM   3218  C1  BMA     2     -28.969 -33.889  20.453  1.00  0.00     0.292 C 
ATOM   3219  C1  BMA     2      48.957 -29.742  19.965  1.00  0.00     0.292 C 
ATOM   3220  C1  BMA     2     -15.796 -46.425  20.040  1.00  0.00     0.292 C 
ATOM   3221  C1  BMA     2      -0.779 -47.103  20.195  1.00  0.00     0.292 C 
ATOM   3222  C1  BMA     2      29.976 -48.608  20.027  1.00  0.00     0.292 C 
ATOM   3223  C1  BMA     2      25.543  38.226  20.026  1.00  0.00     0.292 C 
ATOM   3224  C1  BMA     2      41.501  42.939  20.072  1.00  0.00     0.292 C 
ATOM   3225  C1  BMA     2     -56.651  19.521  19.804  1.00  0.00     0.292 C 
ATOM   3226  C1  BMA     2     -43.366  36.303  20.048  1.00  0.00     0.292 C 
ATOM   3227  C1  BMA     2     -59.655  -4.573  19.923  1.00  0.00     0.185 C 
ATOM   3228  C1  BMA     2      32.817 -38.182  19.716  1.00  0.00     0.328 C 
ATOM   3229  C1  BMA     2     -13.390 -58.758  19.778  1.00  0.00     0.292 C 
ATOM   3230  C1  BMA     2     -54.439  31.022  19.860  1.00  0.00     0.292 C 
ATOM   3231  C1  BMA     2      27.416  51.710  19.988  1.00  0.00     0.292 C 
ATOM   3232  C1  BMA     2     -22.551  45.342  19.992  1.00  0.00     0.292 C 
ATOM   3233  C1  BMA     2      53.621 -19.677  20.113  1.00  0.00     0.292 C 
ATOM   3234  C1  BMA     2     -34.394 -39.275  20.090  1.00  0.00     0.292 C 
ATOM   3235  C1  BMA     2     -38.824 -51.547  19.260  1.00  0.00     0.292 C 
ATOM   3236  C1  BMA     2      43.558  52.077  19.999  1.00  0.00     0.292 C 
ATOM   3237  C1  BMA     2      45.364  36.124  20.000  1.00  0.00     0.292 C 
ATOM   3238  C1  BMA     2      44.219 -44.167  20.043  1.00  0.00     0.292 C 
ATOM   3239  C1  BMA     2      46.675 -39.337  20.033  1.00  0.00     0.292 C 
ATOM   3240  C1  BMA     2     -47.492  50.023  20.086  1.00  0.00     0.292 C 
ATOM   3241  C1  BMA     2     -46.942 -47.985  20.021  1.00  0.00     0.292 C 
ATOM   3242  C2  BMA     2      -1.604   6.446  19.384  1.00  0.00     0.204 C 
ATOM   3243  C2  BMA     2     -13.979  -1.226  19.383  1.00  0.00     0.204 C 
ATOM   3244  C2  BMA     2      10.625 -11.355  19.174  1.00  0.00     0.204 C 
ATOM   3245  C2  BMA     2      -7.181  18.460  19.504  1.00  0.00     0.202 C 
ATOM   3246  C2  BMA     2      10.316  20.183  19.435  1.00  0.00     0.204 C 
ATOM   3247  C2  BMA     2     -15.941  15.720  19.446  1.00  0.00     0.204 C 
ATOM   3248  C2  BMA     2       0.118  17.935  19.382  1.00  0.00     0.204 C 
ATOM   3249  C2  BMA     2      14.438  12.312  19.430  1.00  0.00     0.204 C 
ATOM   3250  C2  BMA     2     -29.456  11.451  19.425  1.00  0.00     0.204 C 
ATOM   3251  C2  BMA     2     -10.392 -17.773  19.420  1.00  0.00     0.204 C 
ATOM   3252  C2  BMA     2       3.214  28.332  19.506  1.00  0.00     0.204 C 
ATOM   3253  C2  BMA     2      -8.473  34.079  19.349  1.00  0.00     0.204 C 
ATOM   3254  C2  BMA     2       7.262 -40.544  19.492  1.00  0.00     0.204 C 
ATOM   3255  C2  BMA     2     -31.324 -27.154  19.390  1.00  0.00     0.204 C 
ATOM   3256  C2  BMA     2     -15.429 -38.462  19.376  1.00  0.00     0.204 C 
ATOM   3257  C2  BMA     2      23.100 -32.623  19.380  1.00  0.00     0.204 C 
ATOM   3258  C2  BMA     2      28.340  26.405  19.359  1.00  0.00     0.204 C 
ATOM   3259  C2  BMA     2      -2.788  44.548  19.407  1.00  0.00     0.204 C 
ATOM   3260  C2  BMA     2       0.224 -33.206  19.412  1.00  0.00     0.204 C 
ATOM   3261  C2  BMA     2     -43.766 -16.284  19.359  1.00  0.00     0.204 C 
ATOM   3262  C2  BMA     2      35.173 -18.708  19.426  1.00  0.00     0.204 C 
ATOM   3263  C2  BMA     2      19.953  32.615  19.351  1.00  0.00     0.204 C 
ATOM   3264  C2  BMA     2     -23.075  30.264  19.433  1.00  0.00     0.204 C 
ATOM   3265  C2  BMA     2     -44.523   7.432  19.357  1.00  0.00     0.204 C 
ATOM   3266  C2  BMA     2      43.420   1.059  19.502  1.00  0.00     0.190 C 
ATOM   3267  C2  BMA     2      27.892 -38.275  19.376  1.00  0.00     0.204 C 
ATOM   3268  C2  BMA     2     -42.984  25.420  19.374  1.00  0.00     0.204 C 
ATOM   3269  C2  BMA     2     -19.587  52.036  19.384  1.00  0.00     0.204 C 
ATOM   3270  C2  BMA     2      -6.921  54.962  19.672  1.00  0.00     0.202 C 
ATOM   3271  C2  BMA     2      17.359  49.834  19.400  1.00  0.00     0.204 C 
ATOM   3272  C2  BMA     2     -28.123 -34.891  19.697  1.00  0.00     0.204 C 
ATOM   3273  C2  BMA     2      48.314 -30.894  19.378  1.00  0.00     0.204 C 
ATOM   3274  C2  BMA     2     -16.645 -47.293  19.337  1.00  0.00     0.204 C 
ATOM   3275  C2  BMA     2       0.397 -46.911  19.404  1.00  0.00     0.204 C 
ATOM   3276  C2  BMA     2      29.086 -49.538  19.380  1.00  0.00     0.204 C 
ATOM   3277  C2  BMA     2      24.655  39.234  19.424  1.00  0.00     0.204 C 
ATOM   3278  C2  BMA     2      41.340  41.594  19.596  1.00  0.00     0.204 C 
ATOM   3279  C2  BMA     2     -55.818  20.592  19.200  1.00  0.00     0.204 C 
ATOM   3280  C2  BMA     2     -43.233  37.688  19.497  1.00  0.00     0.204 C 
ATOM   3281  C2  BMA     2     -58.503  -3.860  19.425  1.00  0.00     0.181 C 
ATOM   3282  C2  BMA     2      33.837 -39.039  19.411  1.00  0.00     0.207 C 
ATOM   3283  C2  BMA     2     -14.699 -58.296  19.408  1.00  0.00     0.204 C 
ATOM   3284  C2  BMA     2     -53.278  31.588  19.295  1.00  0.00     0.204 C 
ATOM   3285  C2  BMA     2      26.356  50.886  19.384  1.00  0.00     0.204 C 
ATOM   3286  C2  BMA     2     -23.855  45.640  19.397  1.00  0.00     0.204 C 
ATOM   3287  C2  BMA     2      54.471 -20.658  19.426  1.00  0.00     0.204 C 
ATOM   3288  C2  BMA     2     -34.395 -40.567  19.488  1.00  0.00     0.204 C 
ATOM   3289  C2  BMA     2     -38.647 -50.092  19.063  1.00  0.00     0.204 C 
ATOM   3290  C2  BMA     2      43.491  50.673  19.543  1.00  0.00     0.204 C 
ATOM   3291  C2  BMA     2      46.377  36.937  19.428  1.00  0.00     0.204 C 
ATOM   3292  C2  BMA     2      44.697 -45.401  19.440  1.00  0.00     0.204 C 
ATOM   3293  C2  BMA     2      47.970 -39.798  19.378  1.00  0.00     0.204 C 
ATOM   3294  C2  BMA     2     -47.555  48.849  19.276  1.00  0.00     0.204 C 
ATOM   3295  C2  BMA     2     -46.585 -49.284  19.395  1.00  0.00     0.204 C 
ATOM   3296  O2  BMA     2      -1.843   6.017  18.114  1.00  0.00    -0.388 OA
ATOM   3297  O2  BMA     2     -13.540  -1.255  18.093  1.00  0.00    -0.388 OA
ATOM   3298  O2  BMA     2      10.942 -11.241  17.926  1.00  0.00    -0.388 OA
ATOM   3299  O2  BMA     2      -7.498  17.849  18.383  1.00  0.00    -0.388 OA
ATOM   3300  O2  BMA     2      10.037  19.791  18.168  1.00  0.00    -0.388 OA
ATOM   3301  O2  BMA     2     -16.329  15.352  18.193  1.00  0.00    -0.388 OA
ATOM   3302  O2  BMA     2       0.026  18.377  18.098  1.00  0.00    -0.388 OA
ATOM   3303  O2  BMA     2      14.883  12.164  18.143  1.00  0.00    -0.388 OA
ATOM   3304  O2  BMA     2     -29.430  10.931  18.168  1.00  0.00    -0.388 OA
ATOM   3305  O2  BMA     2     -10.646 -18.046  18.119  1.00  0.00    -0.388 OA
ATOM   3306  O2  BMA     2       2.289  28.627  18.533  1.00  0.00    -0.388 OA
ATOM   3307  O2  BMA     2      -9.043  34.064  18.097  1.00  0.00    -0.388 OA
ATOM   3308  O2  BMA     2       7.403 -40.090  18.207  1.00  0.00    -0.388 OA
ATOM   3309  O2  BMA     2     -30.876 -27.267  18.147  1.00  0.00    -0.388 OA
ATOM   3310  O2  BMA     2     -14.934 -38.447  18.110  1.00  0.00    -0.388 OA
ATOM   3311  O2  BMA     2      23.485 -32.374  18.099  1.00  0.00    -0.388 OA
ATOM   3312  O2  BMA     2      28.207  25.876  18.093  1.00  0.00    -0.388 OA
ATOM   3313  O2  BMA     2      -3.013  44.157  18.118  1.00  0.00    -0.388 OA
ATOM   3314  O2  BMA     2      -0.236 -33.321  18.125  1.00  0.00    -0.388 OA
ATOM   3315  O2  BMA     2     -43.410 -16.583  18.086  1.00  0.00    -0.388 OA
ATOM   3316  O2  BMA     2      34.738 -18.904  18.158  1.00  0.00    -0.388 OA
ATOM   3317  O2  BMA     2      20.380  32.348  18.120  1.00  0.00    -0.388 OA
ATOM   3318  O2  BMA     2     -23.245  30.685  18.147  1.00  0.00    -0.388 OA
ATOM   3319  O2  BMA     2     -44.834   7.086  18.087  1.00  0.00    -0.388 OA
ATOM   3320  O2  BMA     2      44.146   1.589  18.294  1.00  0.00    -0.390 OA
ATOM   3321  O2  BMA     2      28.307 -38.514  18.124  1.00  0.00    -0.388 OA
ATOM   3322  O2  BMA     2     -42.478  25.276  18.111  1.00  0.00    -0.388 OA
ATOM   3323  O2  BMA     2     -19.839  51.632  18.089  1.00  0.00    -0.388 OA
ATOM   3324  O2  BMA     2      -7.233  54.633  18.351  1.00  0.00    -0.388 OA
ATOM   3325  O2  BMA     2      16.956  50.131  18.127  1.00  0.00    -0.388 OA
ATOM   3326  O2  BMA     2     -28.762 -35.160  18.427  1.00  0.00    -0.388 OA
ATOM   3327  O2  BMA     2      47.940 -30.539  18.115  1.00  0.00    -0.388 OA
ATOM   3328  O2  BMA     2     -16.688 -46.700  18.058  1.00  0.00    -0.388 OA
ATOM   3329  O2  BMA     2       0.233 -47.463  18.146  1.00  0.00    -0.388 OA
ATOM   3330  O2  BMA     2      28.886 -49.051  18.110  1.00  0.00    -0.388 OA
ATOM   3331  O2  BMA     2      25.143  39.589  18.187  1.00  0.00    -0.388 OA
ATOM   3332  O2  BMA     2      40.835  41.753  18.318  1.00  0.00    -0.388 OA
ATOM   3333  O2  BMA     2     -55.664  20.200  17.917  1.00  0.00    -0.388 OA
ATOM   3334  O2  BMA     2     -42.733  37.561  18.246  1.00  0.00    -0.388 OA
ATOM   3335  O2  BMA     2     -58.407  -4.350  18.048  1.00  0.00    -0.390 OA
ATOM   3336  O2  BMA     2      33.191 -39.829  18.492  1.00  0.00    -0.388 OA
ATOM   3337  O2  BMA     2     -14.485 -57.815  18.153  1.00  0.00    -0.388 OA
ATOM   3338  O2  BMA     2     -52.812  31.002  18.262  1.00  0.00    -0.388 OA
ATOM   3339  O2  BMA     2      26.208  51.316  18.105  1.00  0.00    -0.388 OA
ATOM   3340  O2  BMA     2     -23.632  46.044  18.107  1.00  0.00    -0.388 OA
ATOM   3341  O2  BMA     2      53.963 -21.317  18.356  1.00  0.00    -0.388 OA
ATOM   3342  O2  BMA     2     -34.858 -40.474  18.257  1.00  0.00    -0.388 OA
ATOM   3343  O2  BMA     2     -38.216 -49.900  17.706  1.00  0.00    -0.388 OA
ATOM   3344  O2  BMA     2      42.868  50.717  18.336  1.00  0.00    -0.388 OA
ATOM   3345  O2  BMA     2      46.603  36.427  18.178  1.00  0.00    -0.388 OA
ATOM   3346  O2  BMA     2      44.290 -45.261  18.140  1.00  0.00    -0.388 OA
ATOM   3347  O2  BMA     2      47.852 -40.043  18.013  1.00  0.00    -0.388 OA
ATOM   3348  O2  BMA     2     -48.058  49.366  18.087  1.00  0.00    -0.388 OA
ATOM   3349  O2  BMA     2     -47.097 -49.287  18.136  1.00  0.00    -0.388 OA
ATOM   3350  C3  BMA     2      -0.851   7.705  19.188  1.00  0.00     0.183 C 
ATOM   3351  C3  BMA     2     -15.407  -1.202  19.222  1.00  0.00     0.183 C 
ATOM   3352  C3  BMA     2       9.760 -12.349  18.854  1.00  0.00     0.183 C 
ATOM   3353  C3  BMA     2      -6.088  19.284  19.247  1.00  0.00     0.156 C 
ATOM   3354  C3  BMA     2      11.268  21.235  19.306  1.00  0.00     0.183 C 
ATOM   3355  C3  BMA     2     -14.755  16.506  19.200  1.00  0.00     0.183 C 
ATOM   3356  C3  BMA     2       0.498  16.541  19.205  1.00  0.00     0.183 C 
ATOM   3357  C3  BMA     2      13.042  12.440  19.322  1.00  0.00     0.183 C 
ATOM   3358  C3  BMA     2     -29.321  12.899  19.183  1.00  0.00     0.183 C 
ATOM   3359  C3  BMA     2      -9.623 -16.648  19.406  1.00  0.00     0.183 C 
ATOM   3360  C3  BMA     2       4.119  27.122  19.473  1.00  0.00     0.183 C 
ATOM   3361  C3  BMA     2      -7.034  34.212  19.145  1.00  0.00     0.183 C 
ATOM   3362  C3  BMA     2       6.431 -41.700  19.443  1.00  0.00     0.183 C 
ATOM   3363  C3  BMA     2     -32.661 -27.085  19.050  1.00  0.00     0.183 C 
ATOM   3364  C3  BMA     2     -16.891 -38.486  19.187  1.00  0.00     0.183 C 
ATOM   3365  C3  BMA     2      21.937 -33.484  19.185  1.00  0.00     0.183 C 
ATOM   3366  C3  BMA     2      28.782  27.788  19.185  1.00  0.00     0.183 C 
ATOM   3367  C3  BMA     2      -2.060  45.809  19.260  1.00  0.00     0.183 C 
ATOM   3368  C3  BMA     2       1.616 -32.798  19.250  1.00  0.00     0.183 C 
ATOM   3369  C3  BMA     2     -44.849 -15.319  19.201  1.00  0.00     0.183 C 
ATOM   3370  C3  BMA     2      36.490 -18.086  19.271  1.00  0.00     0.183 C 
ATOM   3371  C3  BMA     2      18.710  33.265  19.057  1.00  0.00     0.183 C 
ATOM   3372  C3  BMA     2     -22.611  28.916  19.260  1.00  0.00     0.183 C 
ATOM   3373  C3  BMA     2     -43.596   8.513  19.185  1.00  0.00     0.183 C 
ATOM   3374  C3  BMA     2      42.075   0.401  19.134  1.00  0.00     0.159 C 
ATOM   3375  C3  BMA     2      26.645 -37.836  19.116  1.00  0.00     0.183 C 
ATOM   3376  C3  BMA     2     -44.416  25.541  19.174  1.00  0.00     0.183 C 
ATOM   3377  C3  BMA     2     -18.971  53.330  19.228  1.00  0.00     0.183 C 
ATOM   3378  C3  BMA     2      -5.630  55.567  19.853  1.00  0.00     0.156 C 
ATOM   3379  C3  BMA     2      18.514  48.938  19.208  1.00  0.00     0.183 C 
ATOM   3380  C3  BMA     2     -26.744 -34.351  19.490  1.00  0.00     0.183 C 
ATOM   3381  C3  BMA     2      49.243 -32.025  19.209  1.00  0.00     0.183 C 
ATOM   3382  C3  BMA     2     -15.977 -48.511  19.103  1.00  0.00     0.183 C 
ATOM   3383  C3  BMA     2       0.588 -45.466  19.172  1.00  0.00     0.183 C 
ATOM   3384  C3  BMA     2      29.756 -50.798  19.215  1.00  0.00     0.183 C 
ATOM   3385  C3  BMA     2      23.313  38.636  19.133  1.00  0.00     0.183 C 
ATOM   3386  C3  BMA     2      42.591  40.897  19.595  1.00  0.00     0.183 C 
ATOM   3387  C3  BMA     2     -56.420  21.916  19.143  1.00  0.00     0.183 C 
ATOM   3388  C3  BMA     2     -44.468  38.383  19.398  1.00  0.00     0.183 C 
ATOM   3389  C3  BMA     2     -58.538  -2.446  19.153  1.00  0.00     0.188 C 
ATOM   3390  C3  BMA     2      35.088 -38.203  19.135  1.00  0.00     0.183 C 
ATOM   3391  C3  BMA     2     -15.586 -59.347  19.206  1.00  0.00     0.183 C 
ATOM   3392  C3  BMA     2     -53.553  32.828  18.965  1.00  0.00     0.183 C 
ATOM   3393  C3  BMA     2      26.778  49.512  19.212  1.00  0.00     0.183 C 
ATOM   3394  C3  BMA     2     -24.646  44.432  19.252  1.00  0.00     0.183 C 
ATOM   3395  C3  BMA     2      55.879 -20.080  19.236  1.00  0.00     0.183 C 
ATOM   3396  C3  BMA     2     -33.177 -41.030  19.123  1.00  0.00     0.183 C 
ATOM   3397  C3  BMA     2     -39.674 -49.405  19.774  1.00  0.00     0.183 C 
ATOM   3398  C3  BMA     2      44.757  50.000  19.520  1.00  0.00     0.183 C 
ATOM   3399  C3  BMA     2      45.854  38.250  19.205  1.00  0.00     0.183 C 
ATOM   3400  C3  BMA     2      46.086 -45.417  19.424  1.00  0.00     0.183 C 
ATOM   3401  C3  BMA     2      48.871 -38.690  19.215  1.00  0.00     0.183 C 
ATOM   3402  C3  BMA     2     -46.260  48.394  18.908  1.00  0.00     0.183 C 
ATOM   3403  C3  BMA     2     -45.149 -49.338  19.168  1.00  0.00     0.183 C 
ATOM   3404  O3  BMA     2       0.378   7.380  18.534  1.00  0.00    -0.390 OA
ATOM   3405  O3  BMA     2     -15.644   0.111  18.819  1.00  0.00    -0.390 OA
ATOM   3406  O3  BMA     2       8.485 -11.734  18.473  1.00  0.00    -0.390 OA
ATOM   3407  O3  BMA     2      -4.998  18.451  18.877  1.00  0.00    -0.392 OA
ATOM   3408  O3  BMA     2      12.413  20.762  18.559  1.00  0.00    -0.390 OA
ATOM   3409  O3  BMA     2     -13.740  15.636  18.691  1.00  0.00    -0.390 OA
ATOM   3410  O3  BMA     2      -0.541  15.838  18.499  1.00  0.00    -0.390 OA
ATOM   3411  O3  BMA     2      13.060  13.818  18.887  1.00  0.00    -0.390 OA
ATOM   3412  O3  BMA     2     -28.050  13.100  18.573  1.00  0.00    -0.390 OA
ATOM   3413  O3  BMA     2      -8.345 -17.304  18.929  1.00  0.00    -0.390 OA
ATOM   3414  O3  BMA     2       3.439  26.164  18.621  1.00  0.00    -0.390 OA
ATOM   3415  O3  BMA     2      -6.655  33.035  18.456  1.00  0.00    -0.390 OA
ATOM   3416  O3  BMA     2       5.175 -41.044  19.069  1.00  0.00    -0.390 OA
ATOM   3417  O3  BMA     2     -32.924 -25.718  18.815  1.00  0.00    -0.390 OA
ATOM   3418  O3  BMA     2     -17.272 -37.282  18.520  1.00  0.00    -0.390 OA
ATOM   3419  O3  BMA     2      20.910 -32.719  18.568  1.00  0.00    -0.390 OA
ATOM   3420  O3  BMA     2      30.043  27.707  18.521  1.00  0.00    -0.390 OA
ATOM   3421  O3  BMA     2      -0.811  45.433  18.749  1.00  0.00    -0.390 OA
ATOM   3422  O3  BMA     2       2.228 -33.967  18.762  1.00  0.00    -0.390 OA
ATOM   3423  O3  BMA     2     -44.206 -14.198  18.611  1.00  0.00    -0.390 OA
ATOM   3424  O3  BMA     2      37.342 -19.014  18.579  1.00  0.00    -0.390 OA
ATOM   3425  O3  BMA     2      18.905  34.525  18.417  1.00  0.00    -0.390 OA
ATOM   3426  O3  BMA     2     -23.791  28.257  18.823  1.00  0.00    -0.390 OA
ATOM   3427  O3  BMA     2     -42.461   8.024  18.434  1.00  0.00    -0.390 OA
ATOM   3428  O3  BMA     2      41.444   1.348  18.437  1.00  0.00    -0.380 OA
ATOM   3429  O3  BMA     2      26.839 -36.464  18.605  1.00  0.00    -0.390 OA
ATOM   3430  O3  BMA     2     -44.495  26.770  18.482  1.00  0.00    -0.390 OA
ATOM   3431  O3  BMA     2     -17.769  53.075  18.655  1.00  0.00    -0.390 OA
ATOM   3432  O3  BMA     2      -4.706  54.653  19.048  1.00  0.00    -0.392 OA
ATOM   3433  O3  BMA     2      18.094  47.748  18.567  1.00  0.00    -0.390 OA
ATOM   3434  O3  BMA     2     -26.062 -35.383  18.719  1.00  0.00    -0.390 OA
ATOM   3435  O3  BMA     2      48.528 -33.051  18.544  1.00  0.00    -0.390 OA
ATOM   3436  O3  BMA     2     -17.250 -49.054  18.659  1.00  0.00    -0.390 OA
ATOM   3437  O3  BMA     2       1.790 -45.320  18.454  1.00  0.00    -0.390 OA
ATOM   3438  O3  BMA     2      28.808 -51.615  18.542  1.00  0.00    -0.390 OA
ATOM   3439  O3  BMA     2      22.545  39.665  18.535  1.00  0.00    -0.390 OA
ATOM   3440  O3  BMA     2      42.068  39.656  19.089  1.00  0.00    -0.390 OA
ATOM   3441  O3  BMA     2     -55.284  22.669  18.681  1.00  0.00    -0.390 OA
ATOM   3442  O3  BMA     2     -44.153  39.668  18.718  1.00  0.00    -0.390 OA
ATOM   3443  O3  BMA     2     -57.512  -2.001  18.520  1.00  0.00    -0.390 OA
ATOM   3444  O3  BMA     2      35.864 -39.181  18.539  1.00  0.00    -0.390 OA
ATOM   3445  O3  BMA     2     -16.730 -58.652  18.883  1.00  0.00    -0.390 OA
ATOM   3446  O3  BMA     2     -52.216  33.427  18.798  1.00  0.00    -0.390 OA
ATOM   3447  O3  BMA     2      25.646  48.836  18.685  1.00  0.00    -0.390 OA
ATOM   3448  O3  BMA     2     -25.907  44.934  18.836  1.00  0.00    -0.390 OA
ATOM   3449  O3  BMA     2      56.616 -21.053  18.473  1.00  0.00    -0.390 OA
ATOM   3450  O3  BMA     2     -33.435 -42.461  18.853  1.00  0.00    -0.390 OA
ATOM   3451  O3  BMA     2     -39.515 -48.163  19.203  1.00  0.00    -0.390 OA
ATOM   3452  O3  BMA     2      44.445  48.720  18.841  1.00  0.00    -0.390 OA
ATOM   3453  O3  BMA     2      46.929  38.894  18.648  1.00  0.00    -0.390 OA
ATOM   3454  O3  BMA     2      46.312 -46.662  18.722  1.00  0.00    -0.390 OA
ATOM   3455  O3  BMA     2      50.075 -39.288  18.685  1.00  0.00    -0.390 OA
ATOM   3456  O3  BMA     2     -46.709  47.126  18.337  1.00  0.00    -0.390 OA
ATOM   3457  O3  BMA     2     -44.876 -50.507  18.412  1.00  0.00    -0.390 OA
ATOM   3458  C4  BMA     2      -1.706   8.574  18.301  1.00  0.00     0.180 C 
ATOM   3459  C4  BMA     2     -15.816  -2.373  18.299  1.00  0.00     0.180 C 
ATOM   3460  C4  BMA     2      10.706 -13.554  17.934  1.00  0.00     0.180 C 
ATOM   3461  C4  BMA     2      -6.416  20.194  18.178  1.00  0.00     0.031 C 
ATOM   3462  C4  BMA     2      10.461  22.244  18.567  1.00  0.00     0.180 C 
ATOM   3463  C4  BMA     2     -15.203  17.571  18.227  1.00  0.00     0.180 C 
ATOM   3464  C4  BMA     2       1.739  16.583  18.363  1.00  0.00     0.180 C 
ATOM   3465  C4  BMA     2      12.570  11.055  18.493  1.00  0.00     0.180 C 
ATOM   3466  C4  BMA     2     -30.295  13.283  18.150  1.00  0.00     0.180 C 
ATOM   3467  C4  BMA     2     -10.666 -15.391  18.638  1.00  0.00     0.031 C 
ATOM   3468  C4  BMA     2       5.412  27.621  18.850  1.00  0.00     0.180 C 
ATOM   3469  C4  BMA     2      -6.778  35.455  18.307  1.00  0.00     0.180 C 
ATOM   3470  C4  BMA     2       7.331 -42.725  18.574  1.00  0.00     0.180 C 
ATOM   3471  C4  BMA     2     -33.008 -28.402  17.988  1.00  0.00     0.180 C 
ATOM   3472  C4  BMA     2     -17.195 -39.693  18.323  1.00  0.00     0.180 C 
ATOM   3473  C4  BMA     2      22.305 -34.574  18.303  1.00  0.00     0.180 C 
ATOM   3474  C4  BMA     2      27.747  28.496  18.318  1.00  0.00     0.180 C 
ATOM   3475  C4  BMA     2      -2.854  46.696  18.355  1.00  0.00     0.180 C 
ATOM   3476  C4  BMA     2       1.616 -31.551  18.343  1.00  0.00     0.180 C 
ATOM   3477  C4  BMA     2     -45.897 -16.002  18.313  1.00  0.00     0.180 C 
ATOM   3478  C4  BMA     2      36.273 -16.841  18.498  1.00  0.00     0.180 C 
ATOM   3479  C4  BMA     2      17.935  32.236  18.164  1.00  0.00     0.180 C 
ATOM   3480  C4  BMA     2     -21.355  29.055  18.351  1.00  0.00     0.180 C 
ATOM   3481  C4  BMA     2     -44.419   9.537  18.429  1.00  0.00     0.180 C 
ATOM   3482  C4  BMA     2      42.123  -1.023  18.310  1.00  0.00     0.162 C 
ATOM   3483  C4  BMA     2      26.039 -39.017  18.210  1.00  0.00     0.180 C 
ATOM   3484  C4  BMA     2     -44.874  24.371  18.336  1.00  0.00     0.180 C 
ATOM   3485  C4  BMA     2     -19.822  54.158  18.330  1.00  0.00     0.180 C 
ATOM   3486  C4  BMA     2      -5.942  56.636  19.163  1.00  0.00     0.031 C 
ATOM   3487  C4  BMA     2      19.438  49.593  18.308  1.00  0.00     0.180 C 
ATOM   3488  C4  BMA     2     -27.013 -32.975  18.828  1.00  0.00     0.180 C 
ATOM   3489  C4  BMA     2      50.374 -31.575  18.354  1.00  0.00     0.180 C 
ATOM   3490  C4  BMA     2     -14.726 -48.282  18.184  1.00  0.00     0.180 C 
ATOM   3491  C4  BMA     2      -0.598 -44.947  18.379  1.00  0.00     0.180 C 
ATOM   3492  C4  BMA     2      31.010 -50.495  18.415  1.00  0.00     0.180 C 
ATOM   3493  C4  BMA     2      23.535  37.545  18.086  1.00  0.00     0.181 C 
ATOM   3494  C4  BMA     2      43.448  41.789  18.755  1.00  0.00     0.180 C 
ATOM   3495  C4  BMA     2     -57.641  21.721  18.237  1.00  0.00     0.180 C 
ATOM   3496  C4  BMA     2     -45.272  37.471  18.584  1.00  0.00     0.180 C 
ATOM   3497  C4  BMA     2     -59.472  -1.920  18.469  1.00  0.00     0.132 C 
ATOM   3498  C4  BMA     2      35.037 -37.193  17.992  1.00  0.00     0.181 C 
ATOM   3499  C4  BMA     2     -14.871 -60.168  18.151  1.00  0.00     0.180 C 
ATOM   3500  C4  BMA     2     -55.115  32.789  17.888  1.00  0.00     0.031 C 
ATOM   3501  C4  BMA     2      28.041  49.611  18.327  1.00  0.00     0.180 C 
ATOM   3502  C4  BMA     2     -23.841  43.506  18.310  1.00  0.00     0.180 C 
ATOM   3503  C4  BMA     2      55.794 -18.742  18.452  1.00  0.00     0.180 C 
ATOM   3504  C4  BMA     2     -32.589 -39.945  17.965  1.00  0.00     0.000 C 
ATOM   3505  C4  BMA     2     -40.952 -50.359  19.486  1.00  0.00     0.181 C 
ATOM   3506  C4  BMA     2      45.538  50.877  18.699  1.00  0.00     0.180 C 
ATOM   3507  C4  BMA     2      44.682  38.037  18.239  1.00  0.00     0.180 C 
ATOM   3508  C4  BMA     2      46.404 -44.161  18.711  1.00  0.00     0.180 C 
ATOM   3509  C4  BMA     2      48.068 -37.667  18.341  1.00  0.00     0.180 C 
ATOM   3510  C4  BMA     2     -45.572  49.428  18.065  1.00  0.00     0.180 C 
ATOM   3511  C4  BMA     2     -44.846 -48.146  18.321  1.00  0.00     0.180 C 
ATOM   3512  O4  BMA     2      -1.189   9.886  18.170  1.00  0.00    -0.390 OA
ATOM   3513  O4  BMA     2     -17.228  -2.534  18.221  1.00  0.00    -0.390 OA
ATOM   3514  O4  BMA     2      10.264 -14.903  17.583  1.00  0.00    -0.390 OA
ATOM   3515  O4  BMA     2      -5.305  20.644  17.030  1.00  0.00    -0.253 OA
ATOM   3516  O4  BMA     2      11.122  23.380  18.963  1.00  0.00    -0.390 OA
ATOM   3517  O4  BMA     2     -13.987  17.968  17.574  1.00  0.00    -0.390 OA
ATOM   3518  O4  BMA     2       2.213  15.290  18.563  1.00  0.00    -0.390 OA
ATOM   3519  O4  BMA     2      11.204  10.581  18.320  1.00  0.00    -0.390 OA
ATOM   3520  O4  BMA     2     -30.209  14.723  18.484  1.00  0.00    -0.390 OA
ATOM   3521  O4  BMA     2     -10.358 -13.876  18.548  1.00  0.00    -0.253 OA
ATOM   3522  O4  BMA     2       6.366  26.697  18.458  1.00  0.00    -0.390 OA
ATOM   3523  O4  BMA     2      -5.405  35.725  18.146  1.00  0.00    -0.390 OA
ATOM   3524  O4  BMA     2       7.018 -44.147  18.596  1.00  0.00    -0.390 OA
ATOM   3525  O4  BMA     2     -34.229 -28.816  17.257  1.00  0.00    -0.390 OA
ATOM   3526  O4  BMA     2     -18.598 -39.875  18.191  1.00  0.00    -0.390 OA
ATOM   3527  O4  BMA     2      21.237 -35.487  18.470  1.00  0.00    -0.390 OA
ATOM   3528  O4  BMA     2      28.031  29.878  18.209  1.00  0.00    -0.390 OA
ATOM   3529  O4  BMA     2      -2.389  48.040  18.316  1.00  0.00    -0.390 OA
ATOM   3530  O4  BMA     2       2.909 -30.987  18.268  1.00  0.00    -0.390 OA
ATOM   3531  O4  BMA     2     -47.084 -15.237  18.302  1.00  0.00    -0.390 OA
ATOM   3532  O4  BMA     2      37.634 -16.333  18.479  1.00  0.00    -0.390 OA
ATOM   3533  O4  BMA     2      16.837  32.788  17.463  1.00  0.00    -0.390 OA
ATOM   3534  O4  BMA     2     -20.519  27.954  18.401  1.00  0.00    -0.390 OA
ATOM   3535  O4  BMA     2     -43.852  10.774  18.737  1.00  0.00    -0.390 OA
ATOM   3536  O4  BMA     2      41.017  -1.755  18.331  1.00  0.00    -0.380 OA
ATOM   3537  O4  BMA     2      24.788 -39.118  17.865  1.00  0.00    -0.390 OA
ATOM   3538  O4  BMA     2     -46.288  24.313  18.197  1.00  0.00    -0.390 OA
ATOM   3539  O4  BMA     2     -19.307  55.442  18.261  1.00  0.00    -0.390 OA
ATOM   3540  O4  BMA     2      -4.414  57.081  19.358  1.00  0.00    -0.253 OA
ATOM   3541  O4  BMA     2      20.677  48.871  18.360  1.00  0.00    -0.390 OA
ATOM   3542  O4  BMA     2     -25.745 -32.452  18.505  1.00  0.00    -0.390 OA
ATOM   3543  O4  BMA     2      51.414 -32.517  18.223  1.00  0.00    -0.390 OA
ATOM   3544  O4  BMA     2     -13.732 -49.304  17.972  1.00  0.00    -0.390 OA
ATOM   3545  O4  BMA     2      -0.531 -43.567  18.136  1.00  0.00    -0.390 OA
ATOM   3546  O4  BMA     2      31.875 -51.575  18.580  1.00  0.00    -0.390 OA
ATOM   3547  O4  BMA     2      22.312  36.794  18.029  1.00  0.00    -0.390 OA
ATOM   3548  O4  BMA     2      44.750  41.276  19.015  1.00  0.00    -0.390 OA
ATOM   3549  O4  BMA     2     -58.577  22.778  18.143  1.00  0.00    -0.390 OA
ATOM   3550  O4  BMA     2     -46.370  38.484  18.665  1.00  0.00    -0.390 OA
ATOM   3551  O4  BMA     2     -59.510  -0.480  18.500  1.00  0.00    -0.383 OA
ATOM   3552  O4  BMA     2      36.183 -36.322  18.171  1.00  0.00    -0.390 OA
ATOM   3553  O4  BMA     2     -15.482 -61.260  17.929  1.00  0.00    -0.390 OA
ATOM   3554  O4  BMA     2     -55.833  33.851  16.949  1.00  0.00    -0.253 OA
ATOM   3555  O4  BMA     2      28.777  48.467  18.130  1.00  0.00    -0.390 OA
ATOM   3556  O4  BMA     2     -24.447  42.236  18.164  1.00  0.00    -0.390 OA
ATOM   3557  O4  BMA     2      57.017 -18.104  18.201  1.00  0.00    -0.390 OA
ATOM   3558  O4  BMA     2     -31.735 -40.365  16.745  1.00  0.00    -0.253 OA
ATOM   3559  O4  BMA     2     -42.113 -49.679  19.322  1.00  0.00    -0.390 OA
ATOM   3560  O4  BMA     2      46.643  49.864  18.630  1.00  0.00    -0.390 OA
ATOM   3561  O4  BMA     2      44.035  39.100  17.747  1.00  0.00    -0.390 OA
ATOM   3562  O4  BMA     2      47.643 -43.622  18.992  1.00  0.00    -0.390 OA
ATOM   3563  O4  BMA     2      48.746 -36.468  18.350  1.00  0.00    -0.390 OA
ATOM   3564  O4  BMA     2     -44.162  49.377  18.000  1.00  0.00    -0.390 OA
ATOM   3565  O4  BMA     2     -43.498 -47.915  18.338  1.00  0.00    -0.390 OA
ATOM   3566  C5  BMA     2      -3.037   8.693  18.973  1.00  0.00     0.179 C 
ATOM   3567  C5  BMA     2     -15.281  -3.675  18.930  1.00  0.00     0.179 C 
ATOM   3568  C5  BMA     2      12.019 -14.017  18.701  1.00  0.00     0.179 C 
ATOM   3569  C5  BMA     2      -8.131  21.058  18.824  1.00  0.00     0.188 C 
ATOM   3570  C5  BMA     2       9.170  22.758  19.059  1.00  0.00     0.179 C 
ATOM   3571  C5  BMA     2     -16.435  18.416  18.883  1.00  0.00     0.179 C 
ATOM   3572  C5  BMA     2       2.852  17.450  18.924  1.00  0.00     0.179 C 
ATOM   3573  C5  BMA     2      12.940   9.823  19.124  1.00  0.00     0.179 C 
ATOM   3574  C5  BMA     2     -31.625  12.741  18.630  1.00  0.00     0.179 C 
ATOM   3575  C5  BMA     2     -11.847 -15.099  19.277  1.00  0.00     0.153 C 
ATOM   3576  C5  BMA     2       6.116  28.852  19.525  1.00  0.00     0.179 C 
ATOM   3577  C5  BMA     2      -7.343  36.620  19.017  1.00  0.00     0.179 C 
ATOM   3578  C5  BMA     2       8.676 -43.028  19.076  1.00  0.00     0.179 C 
ATOM   3579  C5  BMA     2     -32.720 -29.626  18.847  1.00  0.00     0.179 C 
ATOM   3580  C5  BMA     2     -16.626 -40.958  18.961  1.00  0.00     0.179 C 
ATOM   3581  C5  BMA     2      23.485 -35.142  18.960  1.00  0.00     0.179 C 
ATOM   3582  C5  BMA     2      26.383  28.393  18.925  1.00  0.00     0.179 C 
ATOM   3583  C5  BMA     2      -4.155  46.761  19.044  1.00  0.00     0.179 C 
ATOM   3584  C5  BMA     2       0.740 -30.460  18.985  1.00  0.00     0.179 C 
ATOM   3585  C5  BMA     2     -46.326 -17.332  18.916  1.00  0.00     0.179 C 
ATOM   3586  C5  BMA     2      35.123 -15.966  19.362  1.00  0.00     0.179 C 
ATOM   3587  C5  BMA     2      17.814  30.821  18.887  1.00  0.00     0.179 C 
ATOM   3588  C5  BMA     2     -20.319  29.978  18.936  1.00  0.00     0.179 C 
ATOM   3589  C5  BMA     2     -45.724   9.977  18.998  1.00  0.00     0.179 C 
ATOM   3590  C5  BMA     2      43.046  -2.224  18.809  1.00  0.00     0.236 C 
ATOM   3591  C5  BMA     2      26.008 -40.357  18.880  1.00  0.00     0.179 C 
ATOM   3592  C5  BMA     2     -44.431  23.090  19.054  1.00  0.00     0.179 C 
ATOM   3593  C5  BMA     2     -21.201  54.264  18.933  1.00  0.00     0.179 C 
ATOM   3594  C5  BMA     2      -7.761  57.794  19.462  1.00  0.00     0.188 C 
ATOM   3595  C5  BMA     2      19.771  50.885  18.873  1.00  0.00     0.179 C 
ATOM   3596  C5  BMA     2     -28.065 -31.735  19.434  1.00  0.00     0.188 C 
ATOM   3597  C5  BMA     2      51.004 -30.414  18.973  1.00  0.00     0.179 C 
ATOM   3598  C5  BMA     2     -13.918 -47.231  18.936  1.00  0.00     0.179 C 
ATOM   3599  C5  BMA     2      -1.827 -45.074  19.154  1.00  0.00     0.179 C 
ATOM   3600  C5  BMA     2      31.896 -49.491  19.002  1.00  0.00     0.179 C 
ATOM   3601  C5  BMA     2      24.519  36.546  18.557  1.00  0.00     0.187 C 
ATOM   3602  C5  BMA     2      43.567  43.295  19.164  1.00  0.00     0.179 C 
ATOM   3603  C5  BMA     2     -58.417  20.644  18.891  1.00  0.00     0.179 C 
ATOM   3604  C5  BMA     2     -45.378  35.871  19.134  1.00  0.00     0.179 C 
ATOM   3605  C5  BMA     2     -60.617  -2.900  19.019  1.00  0.00     0.045 A 
ATOM   3606  C5  BMA     2      33.908 -36.381  18.233  1.00  0.00     0.188 C 
ATOM   3607  C5  BMA     2     -13.517 -60.641  18.618  1.00  0.00     0.179 C 
ATOM   3608  C5  BMA     2     -56.158  32.102  18.782  1.00  0.00     0.153 C 
ATOM   3609  C5  BMA     2      29.078  50.470  18.969  1.00  0.00     0.179 C 
ATOM   3610  C5  BMA     2     -22.436  43.287  18.922  1.00  0.00     0.179 C 
ATOM   3611  C5  BMA     2      54.840 -17.728  19.202  1.00  0.00     0.179 C 
ATOM   3612  C5  BMA     2     -32.680 -38.495  18.887  1.00  0.00     0.179 C 
ATOM   3613  C5  BMA     2     -41.362 -51.794  19.427  1.00  0.00     0.187 C 
ATOM   3614  C5  BMA     2      45.624  52.545  19.121  1.00  0.00     0.179 C 
ATOM   3615  C5  BMA     2      43.630  37.224  18.826  1.00  0.00     0.179 C 
ATOM   3616  C5  BMA     2      45.802 -42.903  19.248  1.00  0.00     0.179 C 
ATOM   3617  C5  BMA     2      46.736 -37.294  18.970  1.00  0.00     0.179 C 
ATOM   3618  C5  BMA     2     -45.628  50.705  18.904  1.00  0.00     0.179 C 
ATOM   3619  C5  BMA     2     -45.276 -46.860  18.879  1.00  0.00     0.179 C 
ATOM   3620  O5  BMA     2      -3.735   7.447  19.172  1.00  0.00    -0.348 OA
ATOM   3621  O5  BMA     2     -13.861  -3.619  19.163  1.00  0.00    -0.348 OA
ATOM   3622  O5  BMA     2      12.664 -12.788  19.087  1.00  0.00    -0.348 OA
ATOM   3623  O5  BMA     2      -9.040  20.049  19.056  1.00  0.00    -0.348 OA
ATOM   3624  O5  BMA     2       8.349  21.626  19.202  1.00  0.00    -0.348 OA
ATOM   3625  O5  BMA     2     -17.497  17.507  19.190  1.00  0.00    -0.348 OA
ATOM   3626  O5  BMA     2       2.380  18.780  19.130  1.00  0.00    -0.348 OA
ATOM   3627  O5  BMA     2      14.348   9.881  19.319  1.00  0.00    -0.348 OA
ATOM   3628  O5  BMA     2     -31.781  11.392  18.995  1.00  0.00    -0.348 OA
ATOM   3629  O5  BMA     2     -12.480 -16.383  19.397  1.00  0.00    -0.351 OA
ATOM   3630  O5  BMA     2       5.104  29.892  19.529  1.00  0.00    -0.348 OA
ATOM   3631  O5  BMA     2      -8.734  36.318  19.232  1.00  0.00    -0.348 OA
ATOM   3632  O5  BMA     2       9.331 -41.780  19.202  1.00  0.00    -0.348 OA
ATOM   3633  O5  BMA     2     -31.396 -29.590  19.355  1.00  0.00    -0.348 OA
ATOM   3634  O5  BMA     2     -15.201 -40.846  19.179  1.00  0.00    -0.348 OA
ATOM   3635  O5  BMA     2      24.641 -34.334  19.212  1.00  0.00    -0.348 OA
ATOM   3636  O5  BMA     2      26.123  26.993  19.084  1.00  0.00    -0.348 OA
ATOM   3637  O5  BMA     2      -4.892  45.510  19.228  1.00  0.00    -0.348 OA
ATOM   3638  O5  BMA     2      -0.595 -30.972  19.239  1.00  0.00    -0.348 OA
ATOM   3639  O5  BMA     2     -45.201 -18.222  19.132  1.00  0.00    -0.348 OA
ATOM   3640  O5  BMA     2      33.888 -16.732  19.465  1.00  0.00    -0.348 OA
ATOM   3641  O5  BMA     2      19.112  30.320  19.204  1.00  0.00    -0.348 OA
ATOM   3642  O5  BMA     2     -20.883  31.257  19.172  1.00  0.00    -0.348 OA
ATOM   3643  O5  BMA     2     -46.520   8.825  19.187  1.00  0.00    -0.348 OA
ATOM   3644  O5  BMA     2      43.901  -1.424  19.441  1.00  0.00    -0.229 OA
ATOM   3645  O5  BMA     2      27.343 -40.660  19.220  1.00  0.00    -0.348 OA
ATOM   3646  O5  BMA     2     -42.999  23.036  19.282  1.00  0.00    -0.348 OA
ATOM   3647  O5  BMA     2     -21.787  52.973  19.163  1.00  0.00    -0.348 OA
ATOM   3648  O5  BMA     2      -8.669  56.824  19.287  1.00  0.00    -0.348 OA
ATOM   3649  O5  BMA     2      18.665  51.775  19.190  1.00  0.00    -0.348 OA
ATOM   3650  O5  BMA     2     -29.113 -32.620  19.866  1.00  0.00    -0.348 OA
ATOM   3651  O5  BMA     2      49.984 -29.389  19.077  1.00  0.00    -0.348 OA
ATOM   3652  O5  BMA     2     -14.647 -46.032  19.263  1.00  0.00    -0.348 OA
ATOM   3653  O5  BMA     2      -1.736 -46.472  19.456  1.00  0.00    -0.348 OA
ATOM   3654  O5  BMA     2      31.120 -48.356  19.187  1.00  0.00    -0.348 OA
ATOM   3655  O5  BMA     2      25.689  37.251  19.023  1.00  0.00    -0.348 OA
ATOM   3656  O5  BMA     2      42.252  43.787  19.219  1.00  0.00    -0.348 OA
ATOM   3657  O5  BMA     2     -57.798  19.337  19.000  1.00  0.00    -0.348 OA
ATOM   3658  O5  BMA     2     -44.067  35.396  19.229  1.00  0.00    -0.348 OA
ATOM   3659  O5  BMA     2     -60.610  -4.285  19.241  1.00  0.00     0.000 OA
ATOM   3660  O5  BMA     2      32.775 -37.308  18.509  1.00  0.00    -0.345 OA
ATOM   3661  O5  BMA     2     -12.685 -59.524  18.844  1.00  0.00    -0.348 OA
ATOM   3662  O5  BMA     2     -55.641  30.854  19.123  1.00  0.00    -0.351 OA
ATOM   3663  O5  BMA     2      28.579  51.811  19.169  1.00  0.00    -0.348 OA
ATOM   3664  O5  BMA     2     -21.738  44.523  19.152  1.00  0.00    -0.348 OA
ATOM   3665  O5  BMA     2      53.587 -18.458  19.409  1.00  0.00    -0.348 OA
ATOM   3666  O5  BMA     2     -33.993 -38.236  19.269  1.00  0.00    -0.348 OA
ATOM   3667  O5  BMA     2     -40.188 -52.150  18.982  1.00  0.00    -0.348 OA
ATOM   3668  O5  BMA     2      44.269  52.958  19.132  1.00  0.00    -0.348 OA
ATOM   3669  O5  BMA     2      44.280  36.011  19.068  1.00  0.00    -0.348 OA
ATOM   3670  O5  BMA     2      44.445 -42.997  19.303  1.00  0.00    -0.348 OA
ATOM   3671  O5  BMA     2      45.923 -38.431  19.218  1.00  0.00    -0.348 OA
ATOM   3672  O5  BMA     2     -46.932  51.123  19.343  1.00  0.00    -0.348 OA
ATOM   3673  O5  BMA     2     -46.670 -46.873  19.144  1.00  0.00    -0.348 OA
ATOM   3674  C6  BMA     2      -3.923   9.423  18.140  1.00  0.00     0.198 C 
ATOM   3675  C6  BMA     2     -15.508  -4.854  17.997  1.00  0.00     0.198 C 
ATOM   3676  C6  BMA     2      12.860 -14.986  17.839  1.00  0.00     0.198 C 
ATOM   3677  C6  BMA     2      -8.955  22.549  18.404  1.00  0.00     0.190 C 
ATOM   3678  C6  BMA     2       8.587  23.741  18.050  1.00  0.00     0.198 C 
ATOM   3679  C6  BMA     2     -17.443  19.233  18.074  1.00  0.00     0.198 C 
ATOM   3680  C6  BMA     2       4.043  17.509  17.986  1.00  0.00     0.198 C 
ATOM   3681  C6  BMA     2      12.635   8.715  18.045  1.00  0.00     0.198 C 
ATOM   3682  C6  BMA     2     -32.632  12.455  17.422  1.00  0.00     0.198 C 
ATOM   3683  C6  BMA     2     -12.604 -14.189  18.207  1.00  0.00     0.196 C 
ATOM   3684  C6  BMA     2       7.510  29.368  18.913  1.00  0.00     0.198 C 
ATOM   3685  C6  BMA     2      -7.147  37.898  18.259  1.00  0.00     0.198 C 
ATOM   3686  C6  BMA     2       9.436 -43.904  18.035  1.00  0.00     0.198 C 
ATOM   3687  C6  BMA     2     -33.030 -30.864  18.032  1.00  0.00     0.198 C 
ATOM   3688  C6  BMA     2     -16.898 -42.108  18.050  1.00  0.00     0.198 C 
ATOM   3689  C6  BMA     2      24.227 -35.879  18.050  1.00  0.00     0.198 C 
ATOM   3690  C6  BMA     2      25.278  29.112  18.144  1.00  0.00     0.198 C 
ATOM   3691  C6  BMA     2      -4.953  47.534  18.232  1.00  0.00     0.198 C 
ATOM   3692  C6  BMA     2       0.756 -29.144  18.143  1.00  0.00     0.198 C 
ATOM   3693  C6  BMA     2     -47.316 -18.009  18.000  1.00  0.00     0.198 C 
ATOM   3694  C6  BMA     2      34.553 -14.466  19.203  1.00  0.00     0.198 C 
ATOM   3695  C6  BMA     2      17.175  29.785  18.069  1.00  0.00     0.198 C 
ATOM   3696  C6  BMA     2     -19.128  30.099  17.987  1.00  0.00     0.198 C 
ATOM   3697  C6  BMA     2     -46.391  10.941  18.012  1.00  0.00     0.198 C 
ATOM   3698  C6  BMA     2      43.508  -3.727  17.740  1.00  0.00     0.190 C 
ATOM   3699  C6  BMA     2      25.415 -41.460  17.996  1.00  0.00     0.198 C 
ATOM   3700  C6  BMA     2     -44.739  21.946  18.202  1.00  0.00     0.198 C 
ATOM   3701  C6  BMA     2     -22.095  55.023  17.992  1.00  0.00     0.198 C 
ATOM   3702  C6  BMA     2      -8.462  59.253  18.463  1.00  0.00     0.190 C 
ATOM   3703  C6  BMA     2      20.537  51.171  17.556  1.00  0.00     0.198 C 
ATOM   3704  C6  BMA     2     -29.079 -30.512  18.371  1.00  0.00     0.190 C 
ATOM   3705  C6  BMA     2      52.333 -30.185  18.342  1.00  0.00     0.198 C 
ATOM   3706  C6  BMA     2     -12.813 -46.786  18.017  1.00  0.00     0.198 C 
ATOM   3707  C6  BMA     2      -3.008 -44.459  18.238  1.00  0.00     0.198 C 
ATOM   3708  C6  BMA     2      33.067 -49.176  18.103  1.00  0.00     0.198 C 
ATOM   3709  C6  BMA     2      24.916  35.433  17.210  1.00  0.00     0.000 C 
ATOM   3710  C6  BMA     2      44.096  44.461  18.269  1.00  0.00     0.198 C 
ATOM   3711  C6  BMA     2     -59.619  20.491  18.131  1.00  0.00     0.198 C 
ATOM   3712  C6  BMA     2     -45.825  34.611  18.210  1.00  0.00     0.198 C 
ATOM   3713  C6  BMA     2     -61.599  -3.386  18.553  1.00  0.00     0.178 A 
ATOM   3714  C6  BMA     2      33.682 -35.259  16.885  1.00  0.00     0.190 C 
ATOM   3715  C6  BMA     2     -12.752 -61.683  17.900  1.00  0.00     0.198 C 
ATOM   3716  C6  BMA     2     -57.367  31.939  18.043  1.00  0.00     0.196 C 
ATOM   3717  C6  BMA     2      30.315  50.397  18.132  1.00  0.00     0.198 C 
ATOM   3718  C6  BMA     2     -21.553  42.479  17.997  1.00  0.00     0.198 C 
ATOM   3719  C6  BMA     2      54.676 -16.196  18.617  1.00  0.00     0.198 C 
ATOM   3720  C6  BMA     2     -32.573 -37.142  18.351  1.00  0.00     0.198 C 
ATOM   3721  C6  BMA     2     -42.354 -52.526  18.070  1.00  0.00     0.190 C 
ATOM   3722  C6  BMA     2      46.173  53.778  18.204  1.00  0.00     0.198 C 
ATOM   3723  C6  BMA     2      42.408  36.997  17.948  1.00  0.00     0.198 C 
ATOM   3724  C6  BMA     2      45.929 -41.928  18.183  1.00  0.00     0.198 C 
ATOM   3725  C6  BMA     2      45.962 -36.392  18.025  1.00  0.00     0.198 C 
ATOM   3726  C6  BMA     2     -45.147  51.788  17.984  1.00  0.00     0.198 C 
ATOM   3727  C6  BMA     2     -44.860 -45.872  17.804  1.00  0.00     0.198 C 
ATOM   3728  O6  BMA     2      -5.000   9.678  19.008  1.00  0.00    -0.398 OA
ATOM   3729  O6  BMA     2     -15.204  -6.111  18.600  1.00  0.00    -0.398 OA
ATOM   3730  O6  BMA     2      14.063 -15.418  18.486  1.00  0.00    -0.398 OA
ATOM   3731  O6  BMA     2     -10.021  23.182  19.048  1.00  0.00    -0.399 OA
ATOM   3732  O6  BMA     2       7.452  24.330  18.617  1.00  0.00    -0.398 OA
ATOM   3733  O6  BMA     2     -18.289  20.154  18.763  1.00  0.00    -0.398 OA
ATOM   3734  O6  BMA     2       5.162  18.167  18.574  1.00  0.00    -0.398 OA
ATOM   3735  O6  BMA     2      12.890   7.440  18.532  1.00  0.00    -0.398 OA
ATOM   3736  O6  BMA     2     -34.080  12.067  17.441  1.00  0.00    -0.398 OA
ATOM   3737  O6  BMA     2     -13.771 -13.728  18.756  1.00  0.00    -0.398 OA
ATOM   3738  O6  BMA     2       8.078  30.647  19.156  1.00  0.00    -0.398 OA
ATOM   3739  O6  BMA     2      -7.382  39.050  19.050  1.00  0.00    -0.398 OA
ATOM   3740  O6  BMA     2      10.653 -44.370  18.573  1.00  0.00    -0.398 OA
ATOM   3741  O6  BMA     2     -32.619 -32.049  18.697  1.00  0.00    -0.398 OA
ATOM   3742  O6  BMA     2     -16.613 -43.359  18.644  1.00  0.00    -0.398 OA
ATOM   3743  O6  BMA     2      24.442 -36.840  18.938  1.00  0.00    -0.398 OA
ATOM   3744  O6  BMA     2      24.003  29.185  18.753  1.00  0.00    -0.398 OA
ATOM   3745  O6  BMA     2      -6.059  47.659  19.060  1.00  0.00    -0.398 OA
ATOM   3746  O6  BMA     2       0.041 -28.089  18.784  1.00  0.00    -0.398 OA
ATOM   3747  O6  BMA     2     -47.920 -19.136  18.601  1.00  0.00    -0.398 OA
ATOM   3748  O6  BMA     2      33.422 -13.757  19.533  1.00  0.00    -0.398 OA
ATOM   3749  O6  BMA     2      16.829  28.565  18.710  1.00  0.00    -0.398 OA
ATOM   3750  O6  BMA     2     -18.064  30.827  18.567  1.00  0.00    -0.398 OA
ATOM   3751  O6  BMA     2     -47.548  11.531  18.581  1.00  0.00    -0.398 OA
ATOM   3752  O6  BMA     2      44.399  -4.967  17.852  1.00  0.00    -0.399 OA
ATOM   3753  O6  BMA     2      25.431 -42.702  18.667  1.00  0.00    -0.398 OA
ATOM   3754  O6  BMA     2     -44.495  20.678  18.800  1.00  0.00    -0.398 OA
ATOM   3755  O6  BMA     2     -23.335  55.347  18.598  1.00  0.00    -0.398 OA
ATOM   3756  O6  BMA     2      -9.410  60.197  18.817  1.00  0.00    -0.399 OA
ATOM   3757  O6  BMA     2      21.202  51.855  18.272  1.00  0.00    -0.398 OA
ATOM   3758  O6  BMA     2     -29.042 -29.262  18.657  1.00  0.00    -0.399 OA
ATOM   3759  O6  BMA     2      53.232 -29.281  19.039  1.00  0.00    -0.398 OA
ATOM   3760  O6  BMA     2     -11.966 -45.848  18.661  1.00  0.00    -0.398 OA
ATOM   3761  O6  BMA     2      -4.397 -44.296  18.624  1.00  0.00    -0.398 OA
ATOM   3762  O6  BMA     2      33.975 -48.226  18.688  1.00  0.00    -0.398 OA
ATOM   3763  O6  BMA     2      25.915  34.251  16.841  1.00  0.00    -0.253 OA
ATOM   3764  O6  BMA     2      44.397  45.650  18.936  1.00  0.00    -0.398 OA
ATOM   3765  O6  BMA     2     -60.434  20.230  19.247  1.00  0.00    -0.398 OA
ATOM   3766  O6  BMA     2     -46.299  33.404  18.755  1.00  0.00    -0.398 OA
ATOM   3767  O6  BMA     2     -62.704  -3.423  19.412  1.00  0.00    -0.400 OA
ATOM   3768  O6  BMA     2      32.620 -34.254  16.419  1.00  0.00    -0.399 OA
ATOM   3769  O6  BMA     2     -11.618 -62.138  18.619  1.00  0.00    -0.398 OA
ATOM   3770  O6  BMA     2     -58.543  31.725  18.762  1.00  0.00    -0.398 OA
ATOM   3771  O6  BMA     2      31.369  51.104  18.776  1.00  0.00    -0.398 OA
ATOM   3772  O6  BMA     2     -20.325  42.079  18.603  1.00  0.00    -0.398 OA
ATOM   3773  O6  BMA     2      53.586 -15.381  19.125  1.00  0.00    -0.398 OA
ATOM   3774  O6  BMA     2     -32.364 -35.857  18.884  1.00  0.00    -0.398 OA
ATOM   3775  O6  BMA     2     -43.375 -53.495  17.614  1.00  0.00    -0.399 OA
ATOM   3776  O6  BMA     2      46.332  55.060  18.759  1.00  0.00    -0.398 OA
ATOM   3777  O6  BMA     2      41.389  36.347  18.699  1.00  0.00    -0.398 OA
ATOM   3778  O6  BMA     2      45.334 -40.680  18.051  1.00  0.00    -0.398 OA
ATOM   3779  O6  BMA     2      44.789 -35.850  18.634  1.00  0.00    -0.398 OA
ATOM   3780  O6  BMA     2     -45.361  53.067  18.543  1.00  0.00    -0.398 OA
ATOM   3781  O6  BMA     2     -45.115 -44.571  18.104  1.00  0.00    -0.398 OA
ATOM   3782  HO2 BMA     2      -2.537   5.347  18.164  1.00  0.00     0.210 HD
ATOM   3783  HO2 BMA     2     -12.590  -1.427  18.131  1.00  0.00     0.210 HD
ATOM   3784  HO2 BMA     2      11.561 -10.536  17.923  1.00  0.00     0.210 HD
ATOM   3785  HO2 BMA     2      -8.439  17.886  18.216  1.00  0.00     0.210 HD
ATOM   3786  HO2 BMA     2       9.208  19.299  18.193  1.00  0.00     0.210 HD
ATOM   3787  HO2 BMA     2     -17.249  15.080  18.189  1.00  0.00     0.210 HD
ATOM   3788  HO2 BMA     2      -0.048  19.333  18.151  1.00  0.00     0.210 HD
ATOM   3789  HO2 BMA     2      15.839  12.076  18.168  1.00  0.00     0.210 HD
ATOM   3790  HO2 BMA     2     -29.974  10.129  18.148  1.00  0.00     0.210 HD
ATOM   3791  HO2 BMA     2     -11.257 -18.782  18.131  1.00  0.00     0.210 HD
ATOM   3792  HO2 BMA     2       2.397  29.545  18.221  1.00  0.00     0.210 HD
ATOM   3793  HO2 BMA     2      -9.940  34.443  18.149  1.00  0.00     0.210 HD
ATOM   3794  HO2 BMA     2       8.228 -39.594  18.141  1.00  0.00     0.210 HD
ATOM   3795  HO2 BMA     2     -29.926 -27.370  18.134  1.00  0.00     0.210 HD
ATOM   3796  HO2 BMA     2     -13.996 -38.681  18.165  1.00  0.00     0.210 HD
ATOM   3797  HO2 BMA     2      24.396 -32.049  18.137  1.00  0.00     0.210 HD
ATOM   3798  HO2 BMA     2      27.562  25.151  18.189  1.00  0.00     0.210 HD
ATOM   3799  HO2 BMA     2      -3.659  43.434  18.154  1.00  0.00     0.210 HD
ATOM   3800  HO2 BMA     2      -1.189 -33.463  18.157  1.00  0.00     0.210 HD
ATOM   3801  HO2 BMA     2     -42.835 -17.356  18.146  1.00  0.00     0.210 HD
ATOM   3802  HO2 BMA     2      33.775 -18.995  18.180  1.00  0.00     0.210 HD
ATOM   3803  HO2 BMA     2      21.158  31.808  18.184  1.00  0.00     0.210 HD
ATOM   3804  HO2 BMA     2     -23.321  31.647  18.158  1.00  0.00     0.210 HD
ATOM   3805  HO2 BMA     2     -45.617   6.530  18.144  1.00  0.00     0.210 HD
ATOM   3806  HO2 BMA     2      45.071   1.285  18.311  1.00  0.00     0.210 HD
ATOM   3807  HO2 BMA     2      29.218 -38.764  18.161  1.00  0.00     0.210 HD
ATOM   3808  HO2 BMA     2     -41.530  25.149  18.181  1.00  0.00     0.210 HD
ATOM   3809  HO2 BMA     2     -20.339  50.810  18.155  1.00  0.00     0.210 HD
ATOM   3810  HO2 BMA     2      -8.187  54.485  18.271  1.00  0.00     0.210 HD
ATOM   3811  HO2 BMA     2      16.340  50.876  18.168  1.00  0.00     0.210 HD
ATOM   3812  HO2 BMA     2     -29.734 -35.063  18.385  1.00  0.00     0.210 HD
ATOM   3813  HO2 BMA     2      47.661 -29.611  18.147  1.00  0.00     0.210 HD
ATOM   3814  HO2 BMA     2     -17.449 -46.130  18.112  1.00  0.00     0.210 HD
ATOM   3815  HO2 BMA     2      -0.267 -48.290  18.224  1.00  0.00     0.210 HD
ATOM   3816  HO2 BMA     2      28.647 -48.118  18.183  1.00  0.00     0.210 HD
ATOM   3817  HO2 BMA     2      26.110  39.498  18.184  1.00  0.00     0.210 HD
ATOM   3818  HO2 BMA     2      40.170  42.449  18.256  1.00  0.00     0.210 HD
ATOM   3819  HO2 BMA     2     -55.206  19.352  18.055  1.00  0.00     0.210 HD
ATOM   3820  HO2 BMA     2     -42.202  36.760  18.198  1.00  0.00     0.210 HD
ATOM   3821  HO2 BMA     2     -58.939  -5.158  18.085  1.00  0.00     0.210 HD
ATOM   3822  HO2 BMA     2      32.301 -39.423  18.339  1.00  0.00     0.210 HD
ATOM   3823  HO2 BMA     2     -13.772 -57.172  18.191  1.00  0.00     0.210 HD
ATOM   3824  HO2 BMA     2     -53.418  30.284  18.105  1.00  0.00     0.210 HD
ATOM   3825  HO2 BMA     2      26.104  52.273  18.159  1.00  0.00     0.210 HD
ATOM   3826  HO2 BMA     2     -22.944  46.730  18.158  1.00  0.00     0.210 HD
ATOM   3827  HO2 BMA     2      53.045 -21.023  18.223  1.00  0.00     0.210 HD
ATOM   3828  HO2 BMA     2     -35.645 -39.956  18.176  1.00  0.00     0.210 HD
ATOM   3829  HO2 BMA     2     -37.781 -50.799  17.637  1.00  0.00     0.210 HD
ATOM   3830  HO2 BMA     2      42.386  51.551  18.240  1.00  0.00     0.210 HD
ATOM   3831  HO2 BMA     2      46.597  35.465  18.189  1.00  0.00     0.210 HD
ATOM   3832  HO2 BMA     2      43.341 -45.165  18.178  1.00  0.00     0.210 HD
ATOM   3833  HO2 BMA     2      47.023 -40.526  17.897  1.00  0.00     0.210 HD
ATOM   3834  HO2 BMA     2     -48.978  49.123  18.129  1.00  0.00     0.210 HD
ATOM   3835  HO2 BMA     2     -48.010 -48.964  18.157  1.00  0.00     0.210 HD
ATOM   3836  HO3 BMA     2       0.091   6.702  17.891  1.00  0.00     0.210 HD
ATOM   3837  HO3 BMA     2     -15.150   0.193  17.982  1.00  0.00     0.210 HD
ATOM   3838  HO3 BMA     2       8.528 -11.592  17.532  1.00  0.00     0.210 HD
ATOM   3839  HO3 BMA     2      -5.139  18.256  17.934  1.00  0.00     0.210 HD
ATOM   3840  HO3 BMA     2      12.081  20.134  17.889  1.00  0.00     0.210 HD
ATOM   3841  HO3 BMA     2     -14.168  15.313  17.877  1.00  0.00     0.210 HD
ATOM   3842  HO3 BMA     2      -0.919  16.511  17.900  1.00  0.00     0.210 HD
ATOM   3843  HO3 BMA     2      13.397  13.919  17.973  1.00  0.00     0.210 HD
ATOM   3844  HO3 BMA     2     -28.102  12.420  17.873  1.00  0.00     0.210 HD
ATOM   3845  HO3 BMA     2      -8.423 -17.693  18.032  1.00  0.00     0.210 HD
ATOM   3846  HO3 BMA     2       2.888  26.676  17.977  1.00  0.00     0.210 HD
ATOM   3847  HO3 BMA     2      -7.450  32.931  17.882  1.00  0.00     0.210 HD
ATOM   3848  HO3 BMA     2       5.314 -40.672  18.164  1.00  0.00     0.210 HD
ATOM   3849  HO3 BMA     2     -32.727 -25.598  17.854  1.00  0.00     0.210 HD
ATOM   3850  HO3 BMA     2     -16.544 -37.121  17.887  1.00  0.00     0.210 HD
ATOM   3851  HO3 BMA     2      21.390 -32.232  17.871  1.00  0.00     0.210 HD
ATOM   3852  HO3 BMA     2      29.907  26.959  17.898  1.00  0.00     0.210 HD
ATOM   3853  HO3 BMA     2      -1.090  44.914  17.957  1.00  0.00     0.210 HD
ATOM   3854  HO3 BMA     2       1.697 -34.218  17.976  1.00  0.00     0.210 HD
ATOM   3855  HO3 BMA     2     -43.693 -14.559  17.863  1.00  0.00     0.210 HD
ATOM   3856  HO3 BMA     2      36.744 -19.358  17.885  1.00  0.00     0.210 HD
ATOM   3857  HO3 BMA     2      19.500  34.305  17.701  1.00  0.00     0.210 HD
ATOM   3858  HO3 BMA     2     -24.052  28.735  18.000  1.00  0.00     0.210 HD
ATOM   3859  HO3 BMA     2     -42.808   7.348  17.820  1.00  0.00     0.210 HD
ATOM   3860  HO3 BMA     2      42.264   1.597  17.925  1.00  0.00     0.211 HD
ATOM   3861  HO3 BMA     2      27.070 -36.500  17.670  1.00  0.00     0.210 HD
ATOM   3862  HO3 BMA     2     -43.847  26.795  17.765  1.00  0.00     0.210 HD
ATOM   3863  HO3 BMA     2     -17.875  52.425  17.933  1.00  0.00     0.210 HD
ATOM   3864  HO3 BMA     2      -5.099  54.634  18.139  1.00  0.00     0.210 HD
ATOM   3865  HO3 BMA     2      17.504  48.107  17.871  1.00  0.00     0.210 HD
ATOM   3866  HO3 BMA     2     -26.728 -35.672  18.030  1.00  0.00     0.210 HD
ATOM   3867  HO3 BMA     2      48.012 -32.524  17.893  1.00  0.00     0.210 HD
ATOM   3868  HO3 BMA     2     -17.268 -49.227  17.713  1.00  0.00     0.210 HD
ATOM   3869  HO3 BMA     2       1.743 -46.098  17.857  1.00  0.00     0.210 HD
ATOM   3870  HO3 BMA     2      28.406 -51.027  17.878  1.00  0.00     0.210 HD
ATOM   3871  HO3 BMA     2      23.194  39.984  17.870  1.00  0.00     0.210 HD
ATOM   3872  HO3 BMA     2      41.956  39.807  18.109  1.00  0.00     0.210 HD
ATOM   3873  HO3 BMA     2     -55.072  22.151  17.880  1.00  0.00     0.210 HD
ATOM   3874  HO3 BMA     2     -43.755  39.388  17.868  1.00  0.00     0.210 HD
ATOM   3875  HO3 BMA     2     -57.552  -2.627  17.762  1.00  0.00     0.210 HD
ATOM   3876  HO3 BMA     2      35.197 -39.558  17.932  1.00  0.00     0.210 HD
ATOM   3877  HO3 BMA     2     -16.607 -58.325  17.985  1.00  0.00     0.210 HD
ATOM   3878  HO3 BMA     2     -52.033  33.245  17.880  1.00  0.00     0.210 HD
ATOM   3879  HO3 BMA     2      25.386  49.387  17.919  1.00  0.00     0.210 HD
ATOM   3880  HO3 BMA     2     -25.669  45.424  18.020  1.00  0.00     0.210 HD
ATOM   3881  HO3 BMA     2      55.919 -21.433  17.883  1.00  0.00     0.210 HD
ATOM   3882  HO3 BMA     2     -33.321 -42.501  17.899  1.00  0.00     0.210 HD
ATOM   3883  HO3 BMA     2     -38.943 -48.211  18.394  1.00  0.00     0.210 HD
ATOM   3884  HO3 BMA     2      44.139  48.993  17.948  1.00  0.00     0.210 HD
ATOM   3885  HO3 BMA     2      47.208  38.371  17.877  1.00  0.00     0.210 HD
ATOM   3886  HO3 BMA     2      45.934 -46.660  17.825  1.00  0.00     0.210 HD
ATOM   3887  HO3 BMA     2      49.708 -39.844  17.960  1.00  0.00     0.210 HD
ATOM   3888  HO3 BMA     2     -46.580  47.069  17.403  1.00  0.00     0.210 HD
ATOM   3889  HO3 BMA     2     -45.638 -50.647  17.807  1.00  0.00     0.210 HD
ATOM   3890  HO4 BMA     2      -0.217   9.848  18.105  1.00  0.00     0.210 HD
ATOM   3891  HO4 BMA     2     -17.652  -1.718  17.944  1.00  0.00     0.210 HD
ATOM   3892  HO4 BMA     2       9.474 -15.332  17.966  1.00  0.00     0.210 HD
ATOM   3893  HO4 BMA     2      -4.920  21.604  17.242  1.00  0.00     0.253 HD
ATOM   3894  HO4 BMA     2      11.931  23.242  18.417  1.00  0.00     0.210 HD
ATOM   3895  HO4 BMA     2     -13.333  18.144  18.264  1.00  0.00     0.210 HD
ATOM   3896  HO4 BMA     2       1.620  14.681  18.087  1.00  0.00     0.210 HD
ATOM   3897  HO4 BMA     2      10.596  11.300  18.118  1.00  0.00     0.210 HD
ATOM   3898  HO4 BMA     2     -29.632  15.253  17.931  1.00  0.00     0.210 HD
ATOM   3899  HO4 BMA     2      -9.433 -13.695  18.201  1.00  0.00     0.253 HD
ATOM   3900  HO4 BMA     2       5.993  25.864  18.121  1.00  0.00     0.210 HD
ATOM   3901  HO4 BMA     2      -4.948  34.890  18.059  1.00  0.00     0.210 HD
ATOM   3902  HO4 BMA     2       6.174 -44.320  18.115  1.00  0.00     0.210 HD
ATOM   3903  HO4 BMA     2     -35.007 -28.229  17.346  1.00  0.00     0.210 HD
ATOM   3904  HO4 BMA     2     -19.049 -39.031  18.069  1.00  0.00     0.210 HD
ATOM   3905  HO4 BMA     2      20.470 -35.226  17.956  1.00  0.00     0.210 HD
ATOM   3906  HO4 BMA     2      28.970  29.970  18.030  1.00  0.00     0.210 HD
ATOM   3907  HO4 BMA     2      -1.504  48.042  17.960  1.00  0.00     0.210 HD
ATOM   3908  HO4 BMA     2       3.560 -31.657  18.019  1.00  0.00     0.210 HD
ATOM   3909  HO4 BMA     2     -46.865 -14.323  18.079  1.00  0.00     0.210 HD
ATOM   3910  HO4 BMA     2      38.302 -16.810  17.959  1.00  0.00     0.210 HD
ATOM   3911  HO4 BMA     2      16.468  33.523  18.002  1.00  0.00     0.210 HD
ATOM   3912  HO4 BMA     2     -20.904  27.240  17.865  1.00  0.00     0.210 HD
ATOM   3913  HO4 BMA     2     -42.993  10.769  18.273  1.00  0.00     0.210 HD
ATOM   3914  HO4 BMA     2      40.476  -1.124  17.907  1.00  0.00     0.211 HD
ATOM   3915  HO4 BMA     2      24.286 -38.296  17.839  1.00  0.00     0.210 HD
ATOM   3916  HO4 BMA     2     -46.667  25.192  18.110  1.00  0.00     0.210 HD
ATOM   3917  HO4 BMA     2     -18.365  55.431  18.057  1.00  0.00     0.210 HD
ATOM   3918  HO4 BMA     2      -4.097  57.832  18.784  1.00  0.00     0.253 HD
ATOM   3919  HO4 BMA     2      20.622  48.021  17.944  1.00  0.00     0.210 HD
ATOM   3920  HO4 BMA     2     -25.124 -33.107  18.123  1.00  0.00     0.210 HD
ATOM   3921  HO4 BMA     2      51.062 -33.374  18.022  1.00  0.00     0.210 HD
ATOM   3922  HO4 BMA     2     -14.026 -50.210  18.134  1.00  0.00     0.210 HD
ATOM   3923  HO4 BMA     2       0.377 -43.311  18.075  1.00  0.00     0.210 HD
ATOM   3924  HO4 BMA     2      31.388 -52.340  18.232  1.00  0.00     0.210 HD
ATOM   3925  HO4 BMA     2      21.482  37.278  18.011  1.00  0.00     0.210 HD
ATOM   3926  HO4 BMA     2      45.239  40.886  18.269  1.00  0.00     0.210 HD
ATOM   3927  HO4 BMA     2     -58.207  23.659  18.184  1.00  0.00     0.210 HD
ATOM   3928  HO4 BMA     2     -46.929  38.640  17.896  1.00  0.00     0.210 HD
ATOM   3929  HO4 BMA     2     -59.596   0.186  17.799  1.00  0.00     0.210 HD
ATOM   3930  HO4 BMA     2      36.961 -36.850  17.973  1.00  0.00     0.210 HD
ATOM   3931  HO4 BMA     2     -16.448 -61.186  17.879  1.00  0.00     0.210 HD
ATOM   3932  HO4 BMA     2     -55.495  34.821  17.229  1.00  0.00     0.253 HD
ATOM   3933  HO4 BMA     2      28.158  47.740  18.270  1.00  0.00     0.210 HD
ATOM   3934  HO4 BMA     2     -25.415  42.297  18.113  1.00  0.00     0.210 HD
ATOM   3935  HO4 BMA     2      57.678 -18.782  18.075  1.00  0.00     0.210 HD
ATOM   3936  HO4 BMA     2     -30.765 -40.592  17.021  1.00  0.00     0.253 HD
ATOM   3937  HO4 BMA     2     -42.005 -49.196  18.502  1.00  0.00     0.210 HD
ATOM   3938  HO4 BMA     2      47.321  49.994  17.946  1.00  0.00     0.210 HD
ATOM   3939  HO4 BMA     2      44.429  39.891  18.144  1.00  0.00     0.210 HD
ATOM   3940  HO4 BMA     2      48.364 -44.111  18.547  1.00  0.00     0.210 HD
ATOM   3941  HO4 BMA     2      49.658 -36.718  18.148  1.00  0.00     0.210 HD
ATOM   3942  HO4 BMA     2     -43.664  48.540  18.053  1.00  0.00     0.210 HD
ATOM   3943  HO4 BMA     2     -43.186 -48.761  18.017  1.00  0.00     0.210 HD
ATOM   3944  HO6 BMA     2      -5.758   9.131  18.742  1.00  0.00     0.209 HD
ATOM   3945  HO6 BMA     2     -14.245  -6.191  18.692  1.00  0.00     0.209 HD
ATOM   3946  HO6 BMA     2      14.575 -14.622  18.683  1.00  0.00     0.209 HD
ATOM   3947  HO6 BMA     2     -10.603  22.479  18.835  1.00  0.00     0.209 HD
ATOM   3948  HO6 BMA     2       6.758  23.679  18.701  1.00  0.00     0.209 HD
ATOM   3949  HO6 BMA     2     -19.145  19.748  18.814  1.00  0.00     0.209 HD
ATOM   3950  HO6 BMA     2       4.954  19.095  18.738  1.00  0.00     0.209 HD
ATOM   3951  HO6 BMA     2      13.792   7.467  18.828  1.00  0.00     0.209 HD
ATOM   3952  HO6 BMA     2     -34.553  12.351  18.244  1.00  0.00     0.209 HD
ATOM   3953  HO6 BMA     2     -14.241 -14.544  18.743  1.00  0.00     0.209 HD
ATOM   3954  HO6 BMA     2       7.497  31.359  18.789  1.00  0.00     0.209 HD
ATOM   3955  HO6 BMA     2      -8.249  39.366  18.700  1.00  0.00     0.209 HD
ATOM   3956  HO6 BMA     2      11.169 -43.563  18.718  1.00  0.00     0.209 HD
ATOM   3957  HO6 BMA     2     -31.662 -32.157  18.628  1.00  0.00     0.209 HD
ATOM   3958  HO6 BMA     2     -15.645 -43.381  18.726  1.00  0.00     0.209 HD
ATOM   3959  HO6 BMA     2      25.411 -36.784  18.875  1.00  0.00     0.209 HD
ATOM   3960  HO6 BMA     2      23.682  28.274  18.705  1.00  0.00     0.209 HD
ATOM   3961  HO6 BMA     2      -6.764  47.060  18.738  1.00  0.00     0.209 HD
ATOM   3962  HO6 BMA     2      -0.909 -28.360  18.749  1.00  0.00     0.209 HD
ATOM   3963  HO6 BMA     2     -47.233 -19.825  18.534  1.00  0.00     0.209 HD
ATOM   3964  HO6 BMA     2      32.824 -13.800  18.783  1.00  0.00     0.209 HD
ATOM   3965  HO6 BMA     2      17.626  28.031  18.727  1.00  0.00     0.209 HD
ATOM   3966  HO6 BMA     2     -18.339  31.746  18.695  1.00  0.00     0.209 HD
ATOM   3967  HO6 BMA     2     -48.185  10.813  18.693  1.00  0.00     0.209 HD
ATOM   3968  HO6 BMA     2      45.361  -4.896  18.132  1.00  0.00     0.209 HD
ATOM   3969  HO6 BMA     2      26.361 -42.942  18.715  1.00  0.00     0.209 HD
ATOM   3970  HO6 BMA     2     -43.558  20.482  18.681  1.00  0.00     0.209 HD
ATOM   3971  HO6 BMA     2     -23.827  54.525  18.735  1.00  0.00     0.209 HD
ATOM   3972  HO6 BMA     2     -10.112  59.587  18.907  1.00  0.00     0.209 HD
ATOM   3973  HO6 BMA     2      20.893  52.755  18.083  1.00  0.00     0.209 HD
ATOM   3974  HO6 BMA     2     -29.887 -29.556  19.064  1.00  0.00     0.209 HD
ATOM   3975  HO6 BMA     2      52.925 -28.379  18.814  1.00  0.00     0.209 HD
ATOM   3976  HO6 BMA     2     -12.435 -44.999  18.707  1.00  0.00     0.209 HD
ATOM   3977  HO6 BMA     2      -4.781 -45.207  18.651  1.00  0.00     0.209 HD
ATOM   3978  HO6 BMA     2      33.569 -47.351  18.690  1.00  0.00     0.209 HD
ATOM   3979  HO6 BMA     2      26.406  33.844  17.649  1.00  0.00     0.253 HD
ATOM   3980  HO6 BMA     2      43.627  46.202  18.777  1.00  0.00     0.209 HD
ATOM   3981  HO6 BMA     2     -60.276  19.268  19.397  1.00  0.00     0.209 HD
ATOM   3982  HO6 BMA     2     -45.576  32.831  18.903  1.00  0.00     0.209 HD
ATOM   3983  HO6 BMA     2     -63.461  -3.779  18.865  1.00  0.00     0.209 HD
ATOM   3984  HO6 BMA     2      31.702 -34.242  16.858  1.00  0.00     0.209 HD
ATOM   3985  HO6 BMA     2     -10.980 -61.435  18.713  1.00  0.00     0.209 HD
ATOM   3986  HO6 BMA     2     -58.514  30.799  18.954  1.00  0.00     0.209 HD
ATOM   3987  HO6 BMA     2      31.156  52.044  18.717  1.00  0.00     0.209 HD
ATOM   3988  HO6 BMA     2     -19.764  42.843  18.758  1.00  0.00     0.209 HD
ATOM   3989  HO6 BMA     2      52.794 -15.597  18.584  1.00  0.00     0.209 HD
ATOM   3990  HO6 BMA     2     -33.202 -35.432  18.852  1.00  0.00     0.209 HD
ATOM   3991  HO6 BMA     2     -43.582 -54.201  18.257  1.00  0.00     0.209 HD
ATOM   3992  HO6 BMA     2      45.505  55.503  18.798  1.00  0.00     0.209 HD
ATOM   3993  HO6 BMA     2      41.602  35.428  18.585  1.00  0.00     0.209 HD
ATOM   3994  HO6 BMA     2      45.018 -40.429  18.919  1.00  0.00     0.209 HD
ATOM   3995  HO6 BMA     2      44.145 -36.560  18.721  1.00  0.00     0.209 HD
ATOM   3996  HO6 BMA     2     -46.297  53.294  18.572  1.00  0.00     0.209 HD
ATOM   3997  HO6 BMA     2     -46.005 -44.590  18.493  1.00  0.00     0.209 HD
ATOM   3998  H3  BMA     2      41.777   0.165  20.324  1.00  0.00     0.000 HD
ATOM   3999  H4  BMA     2      42.271  -0.542  17.170  1.00  0.00     0.000 HD
ATOM   4000  H4  BMA     2     -59.384  -2.304  17.266  1.00  0.00     0.000 HD
ATOM   4001  H5  BMA     2     -60.700  -2.377  20.128  1.00  0.00     0.000 HD
ATOM   4002  N   DYP     1      -2.114  -8.626  19.836  1.00  0.00    -0.077 N 
ATOM   4003  P   DYP     1       1.521  -9.573  18.173  1.00  0.00     0.408 P 
ATOM   4004  C1  DYP     1       2.799  -7.526  17.087  1.00  0.00     0.216 C 
ATOM   4005  C2  DYP     1       2.216  -6.990  15.739  1.00  0.00     0.180 C 
ATOM   4006  C3  DYP     1       2.360  -5.464  15.668  1.00  0.00     0.213 C 
ATOM   4007  C11 DYP     1       0.247  -7.605  19.374  1.00  0.00     0.209 C 
ATOM   4008  O11 DYP     1       2.649  -8.929  17.270  1.00  0.00    -0.287 OA
ATOM   4009  C12 DYP     1      -0.775  -8.176  20.376  1.00  0.00     0.262 C 
ATOM   4010  O12 DYP     1       0.399  -8.440  18.229  1.00  0.00    -0.288 OA
ATOM   4011  C13 DYP     1      -2.594  -7.633  18.836  1.00  0.00     0.271 C 
ATOM   4012  O13 DYP     1       0.960 -10.731  17.457  1.00  0.00    -0.624 OA
ATOM   4013  C14 DYP     1      -3.071  -8.723  20.962  1.00  0.00     0.271 C 
ATOM   4014  O14 DYP     1       2.025  -9.799  19.564  1.00  0.00    -0.624 OA
ATOM   4015  C15 DYP     1      -1.957  -9.963  19.170  1.00  0.00     0.271 C 
ATOM   4016  C21 DYP     1       2.083  -8.087  13.682  1.00  0.00     0.259 C 
ATOM   4017  O21 DYP     1       2.884  -7.575  14.604  1.00  0.00    -0.312 OA
ATOM   4018  C22 DYP     1       2.875  -9.064  12.881  1.00  0.00     0.111 C 
ATOM   4019  O22 DYP     1       0.891  -7.901  13.550  1.00  0.00    -0.265 OA
ATOM   4020  C23 DYP     1       2.100  -9.686  11.662  1.00  0.00     0.010 C 
ATOM   4021  C24 DYP     1       1.088 -10.832  11.971  1.00  0.00     0.000 C 
ATOM   4022  C25 DYP     1       0.448 -11.475  10.732  1.00  0.00     0.000 C 
ATOM   4023  C26 DYP     1      -0.292 -10.378  10.012  1.00  0.00     0.000 C 
ATOM   4024  C27 DYP     1      -1.316 -10.912   9.032  1.00  0.00     0.004 C 
ATOM   4025  C28 DYP     1      -0.919 -10.750   7.563  1.00  0.00     0.027 C 
ATOM   4026  C29 DYP     1       0.232 -11.615   7.120  1.00  0.00    -0.031 C 
ATOM   4027  C31 DYP     1       0.375  -4.854  14.476  1.00  0.00     0.258 C 
ATOM   4028  O31 DYP     1       1.725  -4.985  14.471  1.00  0.00    -0.319 OA
ATOM   4029  C32 DYP     1      -0.130  -4.040  13.290  1.00  0.00     0.111 C 
ATOM   4030  O32 DYP     1      -0.349  -5.165  15.390  1.00  0.00    -0.265 OA
ATOM   4031  C33 DYP     1      -0.097  -4.728  11.851  1.00  0.00     0.010 C 
ATOM   4032  C34 DYP     1       1.078  -5.648  11.296  1.00  0.00     0.000 C 
ATOM   4033  C35 DYP     1       0.822  -6.433  10.000  1.00  0.00     0.000 C 
ATOM   4034  C36 DYP     1       0.043  -5.761   8.864  1.00  0.00     0.000 C 
ATOM   4035  C37 DYP     1      -0.189  -6.671   7.658  1.00  0.00     0.004 C 
ATOM   4036  C38 DYP     1      -1.470  -6.361   6.886  1.00  0.00     0.027 C 
ATOM   4037  C39 DYP     1      -2.677  -6.777   7.682  1.00  0.00    -0.031 C 
ATOM   4038  C21 DYP     1       1.401 -11.154   6.628  1.00  0.00    -0.031 C 
ATOM   4039  C21 DYP     1       1.821  -9.722   6.413  1.00  0.00     0.027 C 
ATOM   4040  C21 DYP     1       1.827  -9.181   4.955  1.00  0.00     0.004 C 
ATOM   4041  C21 DYP     1       0.449  -9.237   4.257  1.00  0.00     0.000 C 
ATOM   4042  C21 DYP     1       0.420  -9.049   2.729  1.00  0.00    -0.000 C 
ATOM   4043  C21 DYP     1       1.085  -7.759   2.245  1.00  0.00    -0.005 C 
ATOM   4044  C21 DYP     1       0.731  -7.470   0.783  1.00  0.00     0.005 C 
ATOM   4045  C31 DYP     1      -3.674  -7.566   7.275  1.00  0.00    -0.031 C 
ATOM   4046  C31 DYP     1      -3.800  -8.207   5.925  1.00  0.00     0.027 C 
ATOM   4047  C31 DYP     1      -3.996  -7.290   4.710  1.00  0.00     0.004 C 
ATOM   4048  C31 DYP     1      -3.889  -8.005   3.353  1.00  0.00     0.000 C 
ATOM   4049  C31 DYP     1      -4.088  -7.039   2.169  1.00  0.00    -0.000 C 
ATOM   4050  C31 DYP     1      -5.512  -6.469   2.058  1.00  0.00    -0.005 C 
ATOM   4051  C31 DYP     1      -5.958  -6.224   0.614  1.00  0.00     0.005 C 
ATOM   4052  C1  ERG     2       7.422   4.727  15.748  1.00  0.00     0.017 C 
ATOM   4053  C2  ERG     2       7.856   4.296  17.167  1.00  0.00     0.033 C 
ATOM   4054  C3  ERG     2       9.363   4.017  17.277  1.00  0.00     0.122 C 
ATOM   4055  O3  ERG     2       9.664   3.826  18.649  1.00  0.00    -0.395 OA
ATOM   4056  C4  ERG     2      10.222   5.164  16.700  1.00  0.00     0.066 C 
ATOM   4057  C5  ERG     2       9.788   5.452  15.273  1.00  0.00    -0.069 A 
ATOM   4058  C6  ERG     2      10.596   5.352  14.190  1.00  0.00     0.004 A 
ATOM   4059  C7  ERG     2      10.184   5.553  12.915  1.00  0.00     0.004 A 
ATOM   4060  C8  ERG     2       8.917   5.886  12.575  1.00  0.00    -0.070 A 
ATOM   4061  C9  ERG     2       7.837   6.123  13.631  1.00  0.00     0.027 A 
ATOM   4062  C10 ERG     2       8.298   5.854  15.115  1.00  0.00    -0.013 A 
ATOM   4063  C11 ERG     2       7.156   7.506  13.323  1.00  0.00     0.011 C 
ATOM   4064  C12 ERG     2       6.621   7.633  11.876  1.00  0.00     0.011 C 
ATOM   4065  C13 ERG     2       7.719   7.363  10.842  1.00  0.00    -0.032 C 
ATOM   4066  C14 ERG     2       8.340   6.007  11.177  1.00  0.00     0.023 C 
ATOM   4067  C15 ERG     2       9.189   5.624   9.950  1.00  0.00     0.010 C 
ATOM   4068  C16 ERG     2       8.493   6.352   8.789  1.00  0.00     0.007 C 
ATOM   4069  C17 ERG     2       7.283   7.137   9.380  1.00  0.00     0.002 C 
ATOM   4070  C18 ERG     2       8.793   8.474  10.874  1.00  0.00     0.016 C 
ATOM   4071  C19 ERG     2       8.147   7.178  15.912  1.00  0.00     0.021 C 
ATOM   4072  C20 ERG     2       6.924   8.356   8.517  1.00  0.00     0.008 C 
ATOM   4073  C21 ERG     2       5.803   9.203   9.152  1.00  0.00     0.014 C 
ATOM   4074  C22 ERG     2       6.357   8.009   7.165  1.00  0.00    -0.026 C 
ATOM   4075  C23 ERG     2       6.995   8.011   5.999  1.00  0.00    -0.026 C 
ATOM   4076  C24 ERG     2       6.270   7.656   4.742  1.00  0.00     0.007 C 
ATOM   4077  C25 ERG     2       5.787   8.873   3.939  1.00  0.00    -0.015 C 
ATOM   4078  C26 ERG     2       4.470   9.448   4.525  1.00  0.00     0.010 C 
ATOM   4079  C27 ERG     2       6.863   9.976   3.784  1.00  0.00     0.010 C 
ATOM   4080  C28 ERG     2       7.234   6.777   3.917  1.00  0.00     0.014 C 
ATOM   4081  H3' ERG     2      10.083   2.970  18.702  1.00  0.00     0.210 HD
ATOM   4082  C1  ERG     3       2.669  13.257  16.668  1.00  0.00     0.017 C 
ATOM   4083  C2  ERG     3       2.126  12.445  17.870  1.00  0.00     0.033 C 
ATOM   4084  C3  ERG     3       1.843  11.018  17.432  1.00  0.00     0.122 C 
ATOM   4085  O3  ERG     3       1.416  10.285  18.570  1.00  0.00    -0.395 OA
ATOM   4086  C4  ERG     3       3.136  10.426  16.851  1.00  0.00     0.066 C 
ATOM   4087  C5  ERG     3       3.694  11.317  15.746  1.00  0.00    -0.069 A 
ATOM   4088  C6  ERG     3       3.786  10.919  14.469  1.00  0.00     0.004 A 
ATOM   4089  C7  ERG     3       4.148  11.711  13.439  1.00  0.00     0.004 A 
ATOM   4090  C8  ERG     3       4.450  13.020  13.555  1.00  0.00    -0.070 A 
ATOM   4091  C9  ERG     3       4.367  13.747  14.874  1.00  0.00     0.027 A 
ATOM   4092  C10 ERG     3       3.999  12.785  16.075  1.00  0.00    -0.013 A 
ATOM   4093  C11 ERG     3       5.629  14.662  15.052  1.00  0.00     0.011 C 
ATOM   4094  C12 ERG     3       6.051  15.515  13.819  1.00  0.00     0.011 C 
ATOM   4095  C13 ERG     3       6.134  14.683  12.510  1.00  0.00    -0.032 C 
ATOM   4096  C14 ERG     3       4.796  13.960  12.440  1.00  0.00     0.023 C 
ATOM   4097  C15 ERG     3       4.696  13.401  11.018  1.00  0.00     0.010 C 
ATOM   4098  C16 ERG     3       5.355  14.454  10.156  1.00  0.00     0.007 C 
ATOM   4099  C17 ERG     3       6.044  15.418  11.149  1.00  0.00     0.002 C 
ATOM   4100  C18 ERG     3       7.280  13.636  12.483  1.00  0.00     0.016 C 
ATOM   4101  C19 ERG     3       5.116  12.898  17.147  1.00  0.00     0.021 C 
ATOM   4102  C20 ERG     3       7.285  15.973  10.494  1.00  0.00     0.008 C 
ATOM   4103  C21 ERG     3       7.785  17.012  11.425  1.00  0.00     0.014 C 
ATOM   4104  C22 ERG     3       6.838  16.636   9.178  1.00  0.00    -0.026 C 
ATOM   4105  C23 ERG     3       7.271  16.233   7.982  1.00  0.00    -0.026 C 
ATOM   4106  C24 ERG     3       6.905  16.874   6.610  1.00  0.00     0.007 C 
ATOM   4107  C25 ERG     3       8.111  17.216   5.715  1.00  0.00    -0.015 C 
ATOM   4108  C26 ERG     3       8.981  17.567   6.832  1.00  0.00     0.010 C 
ATOM   4109  C27 ERG     3       9.052  16.227   5.095  1.00  0.00     0.010 C 
ATOM   4110  C28 ERG     3       6.034  16.154   5.661  1.00  0.00     0.014 C 
ATOM   4111  H3' ERG     3       2.161  10.248  19.173  1.00  0.00     0.210 HD
ATOM   4112  C1  ERG     4      -8.172  -5.256  15.334  1.00  0.00     0.017 C 
ATOM   4113  C2  ERG     4      -8.242  -5.515  16.850  1.00  0.00     0.033 C 
ATOM   4114  C3  ERG     4      -9.671  -5.317  17.326  1.00  0.00     0.122 C 
ATOM   4115  O3  ERG     4      -9.697  -5.582  18.713  1.00  0.00    -0.395 OA
ATOM   4116  C4  ERG     4     -10.618  -6.269  16.586  1.00  0.00     0.066 C 
ATOM   4117  C5  ERG     4     -10.549  -6.043  15.083  1.00  0.00    -0.069 A 
ATOM   4118  C6  ERG     4     -11.596  -5.736  14.303  1.00  0.00     0.004 A 
ATOM   4119  C7  ERG     4     -11.509  -5.456  12.985  1.00  0.00     0.004 A 
ATOM   4120  C8  ERG     4     -10.354  -5.407  12.269  1.00  0.00    -0.070 A 
ATOM   4121  C9  ERG     4      -9.010  -5.725  12.928  1.00  0.00     0.027 A 
ATOM   4122  C10 ERG     4      -9.148  -6.082  14.468  1.00  0.00    -0.013 A 
ATOM   4123  C11 ERG     4      -8.308  -6.734  11.955  1.00  0.00     0.011 C 
ATOM   4124  C12 ERG     4      -8.167  -6.404  10.444  1.00  0.00     0.011 C 
ATOM   4125  C13 ERG     4      -9.565  -6.104   9.861  1.00  0.00    -0.032 C 
ATOM   4126  C14 ERG     4     -10.216  -5.061  10.789  1.00  0.00     0.023 C 
ATOM   4127  C15 ERG     4     -11.498  -4.659  10.039  1.00  0.00     0.010 C 
ATOM   4128  C16 ERG     4     -11.071  -4.610   8.571  1.00  0.00     0.007 C 
ATOM   4129  C17 ERG     4      -9.698  -5.361   8.509  1.00  0.00     0.002 C 
ATOM   4130  C18 ERG     4     -10.445  -7.389   9.772  1.00  0.00     0.016 C 
ATOM   4131  C19 ERG     4      -8.711  -7.474  14.625  1.00  0.00     0.021 C 
ATOM   4132  C20 ERG     4      -9.475  -6.135   7.201  1.00  0.00     0.008 C 
ATOM   4133  C21 ERG     4      -7.952  -6.282   6.988  1.00  0.00     0.014 C 
ATOM   4134  C22 ERG     4     -10.084  -5.453   5.987  1.00  0.00    -0.026 C 
ATOM   4135  C23 ERG     4     -10.786  -6.062   5.007  1.00  0.00    -0.026 C 
ATOM   4136  C24 ERG     4     -11.387  -5.350   3.798  1.00  0.00     0.007 C 
ATOM   4137  C25 ERG     4     -10.454  -5.370   2.582  1.00  0.00    -0.015 C 
ATOM   4138  C26 ERG     4     -11.051  -4.622   1.369  1.00  0.00     0.010 C 
ATOM   4139  C27 ERG     4      -9.093  -4.744   2.914  1.00  0.00     0.010 C 
ATOM   4140  C28 ERG     4     -12.673  -6.096   3.358  1.00  0.00     0.014 C 
ATOM   4141  H3' ERG     4      -8.866  -5.239  19.060  1.00  0.00     0.210 HD
ATOM   4142  N   DYP     5       8.822 -14.450  20.267  1.00  0.00     0.075 N 
ATOM   4143  P   DYP     5       6.244 -16.528  18.193  1.00  0.00     0.408 P 
ATOM   4144  C1  DYP     5       4.127 -15.744  16.934  1.00  0.00     0.216 C 
ATOM   4145  C2  DYP     5       3.724 -15.240  15.544  1.00  0.00     0.180 C 
ATOM   4146  C3  DYP     5       4.153 -13.754  15.481  1.00  0.00     0.213 C 
ATOM   4147  C11 DYP     5       6.684 -14.065  18.730  1.00  0.00     0.181 C 
ATOM   4148  O11 DYP     5       5.536 -15.890  16.957  1.00  0.00    -0.287 OA
ATOM   4149  C12 DYP     5       8.123 -14.288  18.836  1.00  0.00     0.029 C 
ATOM   4150  O12 DYP     5       6.207 -15.301  19.197  1.00  0.00    -0.290 OA
ATOM   4151  C13 DYP     5       8.994 -15.863  20.392  1.00  0.00     0.308 C 
ATOM   4152  O13 DYP     5       5.410 -17.576  18.804  1.00  0.00    -0.624 OA
ATOM   4153  C14 DYP     5       8.206 -13.577  21.290  1.00  0.00     0.308 C 
ATOM   4154  O14 DYP     5       7.651 -16.800  17.803  1.00  0.00    -0.624 OA
ATOM   4155  C15 DYP     5      10.235 -14.360  20.568  1.00  0.00     0.308 C 
ATOM   4156  C21 DYP     5       3.679 -16.233  13.446  1.00  0.00     0.259 C 
ATOM   4157  O21 DYP     5       4.398 -16.009  14.516  1.00  0.00    -0.312 OA
ATOM   4158  C22 DYP     5       4.535 -16.868  12.366  1.00  0.00     0.111 C 
ATOM   4159  O22 DYP     5       2.490 -15.991  13.309  1.00  0.00    -0.265 OA
ATOM   4160  C23 DYP     5       3.837 -16.599  11.027  1.00  0.00     0.010 C 
ATOM   4161  C24 DYP     5       4.463 -17.350   9.855  1.00  0.00     0.000 C 
ATOM   4162  C25 DYP     5       3.705 -16.998   8.579  1.00  0.00     0.000 C 
ATOM   4163  C26 DYP     5       4.248 -15.724   7.924  1.00  0.00     0.000 C 
ATOM   4164  C27 DYP     5       3.359 -15.181   6.792  1.00  0.00     0.004 C 
ATOM   4165  C28 DYP     5       3.941 -13.929   6.100  1.00  0.00     0.027 C 
ATOM   4166  C29 DYP     5       3.077 -13.591   4.907  1.00  0.00    -0.031 C 
ATOM   4167  C31 DYP     5       4.301 -12.092  13.929  1.00  0.00     0.258 C 
ATOM   4168  O31 DYP     5       3.923 -13.295  14.173  1.00  0.00    -0.319 OA
ATOM   4169  C32 DYP     5       3.943 -11.896  12.497  1.00  0.00     0.111 C 
ATOM   4170  O32 DYP     5       4.789 -11.277  14.694  1.00  0.00    -0.265 OA
ATOM   4171  C33 DYP     5       4.764 -12.509  11.423  1.00  0.00     0.010 C 
ATOM   4172  C34 DYP     5       5.753 -11.461  10.964  1.00  0.00     0.000 C 
ATOM   4173  C35 DYP     5       6.733 -12.118  10.023  1.00  0.00     0.000 C 
ATOM   4174  C36 DYP     5       6.222 -12.140   8.599  1.00  0.00     0.000 C 
ATOM   4175  C37 DYP     5       7.210 -12.852   7.662  1.00  0.00     0.004 C 
ATOM   4176  C38 DYP     5       8.506 -12.084   7.301  1.00  0.00     0.027 C 
ATOM   4177  C39 DYP     5       9.398 -12.964   6.451  1.00  0.00    -0.031 C 
ATOM   4178  C21 DYP     5       3.388 -13.560   3.601  1.00  0.00    -0.031 C 
ATOM   4179  C21 DYP     5       4.718 -13.860   2.955  1.00  0.00     0.027 C 
ATOM   4180  C21 DYP     5       4.706 -15.132   2.071  1.00  0.00     0.004 C 
ATOM   4181  C21 DYP     5       5.963 -15.303   1.209  1.00  0.00     0.000 C 
ATOM   4182  C21 DYP     5       7.198 -15.731   2.007  1.00  0.00    -0.000 C 
ATOM   4183  C21 DYP     5       8.436 -15.754   1.103  1.00  0.00    -0.005 C 
ATOM   4184  C21 DYP     5       9.738 -16.170   1.777  1.00  0.00     0.005 C 
ATOM   4185  C31 DYP     5       9.927 -12.757   5.217  1.00  0.00    -0.031 C 
ATOM   4186  C31 DYP     5       9.773 -11.556   4.312  1.00  0.00     0.027 C 
ATOM   4187  C31 DYP     5       9.368 -11.834   2.801  1.00  0.00     0.004 C 
ATOM   4188  C31 DYP     5       9.242 -10.629   1.844  1.00  0.00     0.000 C 
ATOM   4189  C31 DYP     5       8.849 -10.426   0.418  1.00  0.00    -0.000 C 
ATOM   4190  C31 DYP     5      10.126 -10.609  -0.278  1.00  0.00    -0.005 C 
ATOM   4191  C31 DYP     5       9.828 -11.112  -1.642  1.00  0.00     0.005 C 
ATOM   4192  P   POP     6      -6.862 -12.819  19.901  1.00  0.00     0.408 P 
ATOM   4193  C1  POP     6      -8.080 -14.697  18.797  1.00  0.00     0.208 C 
ATOM   4194  C2  POP     6      -8.619 -15.199  17.217  1.00  0.00     0.196 C 
ATOM   4195  O2  POP     6      -6.025 -16.116  22.405  1.00  0.00    -0.390 OA
ATOM   4196  C3  POP     6      -9.648 -14.448  16.092  1.00  0.00     0.205 C 
ATOM   4197  O3  POP     6      -3.558 -15.285  23.784  1.00  0.00    -0.390 OA
ATOM   4198  O4  POP     6      -5.097 -14.813  26.175  1.00  0.00    -0.390 OA
ATOM   4199  O5  POP     6      -7.718 -13.668  25.978  1.00  0.00    -0.390 OA
ATOM   4200  O6  POP     6      -8.750 -12.998  23.405  1.00  0.00    -0.390 OA
ATOM   4201  C11 POP     6      -6.668 -13.757  22.406  1.00  0.00     0.197 C 
ATOM   4202  O11 POP     6      -7.657 -13.408  18.740  1.00  0.00    -0.288 OA
ATOM   4203  C12 POP     6      -5.538 -14.771  22.457  1.00  0.00     0.181 C 
ATOM   4204  O12 POP     6      -7.270 -13.863  21.151  1.00  0.00    -0.279 OA
ATOM   4205  C13 POP     6      -4.775 -14.532  23.736  1.00  0.00     0.180 C 
ATOM   4206  O13 POP     6      -5.490 -12.997  19.404  1.00  0.00    -0.624 OA
ATOM   4207  C14 POP     6      -5.738 -14.764  24.902  1.00  0.00     0.180 C 
ATOM   4208  O14 POP     6      -7.453 -11.486  20.118  1.00  0.00    -0.624 OA
ATOM   4209  C15 POP     6      -6.886 -13.736  24.816  1.00  0.00     0.180 C 
ATOM   4210  C16 POP     6      -7.670 -13.931  23.530  1.00  0.00     0.181 C 
ATOM   4211  C21 POP     6      -7.561 -16.522  16.001  1.00  0.00     0.259 C 
ATOM   4212  O21 POP     6      -7.451 -15.413  16.639  1.00  0.00    -0.310 OA
ATOM   4213  C22 POP     6      -6.251 -16.855  15.701  1.00  0.00     0.111 C 
ATOM   4214  O22 POP     6      -8.556 -17.114  15.665  1.00  0.00    -0.265 OA
ATOM   4215  C23 POP     6      -6.145 -15.776  14.613  1.00  0.00     0.010 C 
ATOM   4216  C24 POP     6      -7.118 -15.934  13.420  1.00  0.00     0.000 C 
ATOM   4217  C25 POP     6      -6.978 -14.773  12.450  1.00  0.00     0.000 C 
ATOM   4218  C26 POP     6      -7.875 -14.920  11.213  1.00  0.00     0.000 C 
ATOM   4219  C27 POP     6      -7.609 -16.198  10.398  1.00  0.00     0.004 C 
ATOM   4220  C28 POP     6      -8.034 -16.139   8.912  1.00  0.00     0.027 C 
ATOM   4221  C29 POP     6      -9.529 -16.031   8.717  1.00  0.00    -0.031 C 
ATOM   4222  C31 POP     6     -10.120 -12.179  15.533  1.00  0.00     0.258 C 
ATOM   4223  O31 POP     6      -9.242 -13.133  15.795  1.00  0.00    -0.319 OA
ATOM   4224  C32 POP     6      -9.312 -10.919  15.590  1.00  0.00     0.111 C 
ATOM   4225  O32 POP     6     -11.276 -12.290  15.177  1.00  0.00    -0.265 OA
ATOM   4226  C33 POP     6      -8.852 -10.775  14.129  1.00  0.00     0.010 C 
ATOM   4227  C34 POP     6      -7.510 -10.057  14.029  1.00  0.00     0.000 C 
ATOM   4228  C35 POP     6      -7.138  -9.585  12.622  1.00  0.00     0.000 C 
ATOM   4229  C36 POP     6      -6.994 -10.759  11.691  1.00  0.00     0.000 C 
ATOM   4230  C37 POP     6      -5.645 -10.700  11.023  1.00  0.00     0.000 C 
ATOM   4231  C38 POP     6      -5.431 -11.986  10.238  1.00  0.00     0.000 C 
ATOM   4232  C39 POP     6      -4.542 -11.853   8.996  1.00  0.00     0.000 C 
ATOM   4233  C21 POP     6     -10.131 -15.200   7.838  1.00  0.00    -0.031 C 
ATOM   4234  C21 POP     6      -9.427 -14.240   6.901  1.00  0.00     0.027 C 
ATOM   4235  C21 POP     6      -8.799 -14.869   5.628  1.00  0.00     0.004 C 
ATOM   4236  C21 POP     6      -9.808 -15.119   4.491  1.00  0.00     0.000 C 
ATOM   4237  C21 POP     6      -9.462 -16.212   3.460  1.00  0.00     0.000 C 
ATOM   4238  C21 POP     6      -8.033 -16.140   2.882  1.00  0.00     0.000 C 
ATOM   4239  C21 POP     6      -7.741 -14.915   1.992  1.00  0.00    -0.000 C 
ATOM   4240  C21 POP     6      -6.256 -14.722   1.638  1.00  0.00    -0.005 C 
ATOM   4241  C21 POP     6      -6.072 -14.069   0.263  1.00  0.00     0.005 C 
ATOM   4242  C31 POP     6      -4.939 -10.808   7.921  1.00  0.00     0.000 C 
ATOM   4243  C31 POP     6      -6.155 -11.231   7.051  1.00  0.00     0.000 C 
ATOM   4244  C31 POP     6      -6.494 -10.319   5.851  1.00  0.00     0.000 C 
ATOM   4245  C31 POP     6      -7.646 -10.700   4.908  1.00  0.00     0.000 C 
ATOM   4246  C31 POP     6      -7.634  -9.787   3.663  1.00  0.00    -0.000 C 
ATOM   4247  C31 POP     6      -8.704 -10.140   2.622  1.00  0.00    -0.005 C 
ATOM   4248  C31 POP     6      -8.493  -9.410   1.297  1.00  0.00     0.005 C 
ATOM   4249  HO2 POP     6      -6.176 -16.326  21.477  1.00  0.00     0.210 HD
ATOM   4250  HO3 POP     6      -2.856 -14.710  23.477  1.00  0.00     0.210 HD
ATOM   4251  HO4 POP     6      -5.518 -15.550  26.625  1.00  0.00     0.210 HD
ATOM   4252  HO5 POP     6      -7.484 -12.847  26.422  1.00  0.00     0.210 HD
ATOM   4253  HO6 POP     6      -9.264 -13.236  22.623  1.00  0.00     0.210 HD
ATOM   4254  C1  ERG     7     -19.872   1.387  15.523  1.00  0.00     0.017 C 
ATOM   4255  C2  ERG     7     -19.998   0.999  16.990  1.00  0.00     0.033 C 
ATOM   4256  C3  ERG     7     -18.789   0.174  17.360  1.00  0.00     0.122 C 
ATOM   4257  O3  ERG     7     -18.865  -0.115  18.750  1.00  0.00    -0.395 OA
ATOM   4258  C4  ERG     7     -17.468   0.861  16.993  1.00  0.00     0.066 C 
ATOM   4259  C5  ERG     7     -17.364   1.378  15.616  1.00  0.00    -0.069 A 
ATOM   4260  C6  ERG     7     -16.407   1.005  14.752  1.00  0.00     0.004 A 
ATOM   4261  C7  ERG     7     -16.507   1.281  13.447  1.00  0.00     0.004 A 
ATOM   4262  C8  ERG     7     -17.478   1.898  12.842  1.00  0.00    -0.070 A 
ATOM   4263  C9  ERG     7     -18.606   2.410  13.649  1.00  0.00     0.027 A 
ATOM   4264  C10 ERG     7     -18.580   2.162  15.181  1.00  0.00    -0.013 A 
ATOM   4265  C11 ERG     7     -18.819   3.839  13.189  1.00  0.00     0.011 C 
ATOM   4266  C12 ERG     7     -18.873   3.958  11.625  1.00  0.00     0.011 C 
ATOM   4267  C13 ERG     7     -17.837   3.220  10.706  1.00  0.00    -0.032 C 
ATOM   4268  C14 ERG     7     -17.605   1.930  11.336  1.00  0.00     0.023 C 
ATOM   4269  C15 ERG     7     -16.479   1.398  10.430  1.00  0.00     0.010 C 
ATOM   4270  C16 ERG     7     -16.735   1.887   8.997  1.00  0.00     0.007 C 
ATOM   4271  C17 ERG     7     -17.907   2.897   9.193  1.00  0.00     0.002 C 
ATOM   4272  C18 ERG     7     -16.507   3.711  10.639  1.00  0.00     0.016 C 
ATOM   4273  C19 ERG     7     -18.587   3.475  15.993  1.00  0.00     0.021 C 
ATOM   4274  C20 ERG     7     -17.779   3.963   8.103  1.00  0.00     0.008 C 
ATOM   4275  C21 ERG     7     -18.975   4.936   8.290  1.00  0.00     0.014 C 
ATOM   4276  C22 ERG     7     -17.603   3.452   6.688  1.00  0.00    -0.026 C 
ATOM   4277  C23 ERG     7     -16.840   3.821   5.619  1.00  0.00    -0.026 C 
ATOM   4278  C24 ERG     7     -16.773   3.221   4.318  1.00  0.00     0.007 C 
ATOM   4279  C25 ERG     7     -16.464   1.768   4.525  1.00  0.00    -0.015 C 
ATOM   4280  C26 ERG     7     -16.042   1.220   3.179  1.00  0.00     0.010 C 
ATOM   4281  C27 ERG     7     -15.250   1.682   5.344  1.00  0.00     0.010 C 
ATOM   4282  C28 ERG     7     -18.145   3.388   3.714  1.00  0.00     0.014 C 
ATOM   4283  H3' ERG     7     -18.380  -0.920  18.925  1.00  0.00     0.210 HD
ATOM   4284  N   DYP     8      21.036  -3.596  18.414  1.00  0.00    -0.077 N 
ATOM   4285  P   DYP     8      17.533  -0.964  19.443  1.00  0.00     0.408 P 
ATOM   4286  C1  DYP     8      18.483   0.641  17.616  1.00  0.00     0.216 C 
ATOM   4287  C2  DYP     8      17.935   0.872  16.231  1.00  0.00     0.180 C 
ATOM   4288  C3  DYP     8      19.019   1.242  15.269  1.00  0.00     0.213 C 
ATOM   4289  C11 DYP     8      19.303  -2.656  20.124  1.00  0.00     0.209 C 
ATOM   4290  O11 DYP     8      17.404   0.048  18.271  1.00  0.00    -0.287 OA
ATOM   4291  C12 DYP     8      20.725  -3.202  19.854  1.00  0.00     0.262 C 
ATOM   4292  O12 DYP     8      19.021  -1.531  19.293  1.00  0.00    -0.288 OA
ATOM   4293  C13 DYP     8      21.241  -2.392  17.543  1.00  0.00     0.271 C 
ATOM   4294  O13 DYP     8      17.539  -0.130  20.662  1.00  0.00    -0.624 OA
ATOM   4295  C14 DYP     8      19.834  -4.270  17.821  1.00  0.00     0.271 C 
ATOM   4296  O14 DYP     8      16.561  -2.063  19.260  1.00  0.00    -0.624 OA
ATOM   4297  C15 DYP     8      22.290  -4.402  18.337  1.00  0.00     0.271 C 
ATOM   4298  C21 DYP     8      16.359   0.059  14.813  1.00  0.00     0.259 C 
ATOM   4299  O21 DYP     8      17.292  -0.252  15.675  1.00  0.00    -0.312 OA
ATOM   4300  C22 DYP     8      16.100  -1.218  14.037  1.00  0.00     0.111 C 
ATOM   4301  O22 DYP     8      15.900   1.169  14.601  1.00  0.00    -0.265 OA
ATOM   4302  C23 DYP     8      16.612  -1.176  12.580  1.00  0.00     0.010 C 
ATOM   4303  C24 DYP     8      16.945  -2.583  12.075  1.00  0.00     0.000 C 
ATOM   4304  C25 DYP     8      15.689  -3.298  11.564  1.00  0.00     0.000 C 
ATOM   4305  C26 DYP     8      15.968  -4.737  11.117  1.00  0.00     0.000 C 
ATOM   4306  C27 DYP     8      16.828  -4.861   9.849  1.00  0.00     0.004 C 
ATOM   4307  C28 DYP     8      16.400  -3.930   8.687  1.00  0.00     0.027 C 
ATOM   4308  C29 DYP     8      15.015  -4.177   8.124  1.00  0.00    -0.031 C 
ATOM   4309  C31 DYP     8      21.128   0.662  14.094  1.00  0.00     0.258 C 
ATOM   4310  O31 DYP     8      20.159   0.429  14.968  1.00  0.00    -0.319 OA
ATOM   4311  C32 DYP     8      22.076  -0.292  14.147  1.00  0.00     0.111 C 
ATOM   4312  O32 DYP     8      21.465   1.524  13.315  1.00  0.00    -0.265 OA
ATOM   4313  C33 DYP     8      21.537  -0.684  12.807  1.00  0.00     0.010 C 
ATOM   4314  C34 DYP     8      22.458  -1.619  12.375  1.00  0.00     0.000 C 
ATOM   4315  C35 DYP     8      21.931  -1.920  10.986  1.00  0.00     0.000 C 
ATOM   4316  C36 DYP     8      20.431  -2.026  10.664  1.00  0.00     0.000 C 
ATOM   4317  C37 DYP     8      20.194  -2.311   9.192  1.00  0.00     0.004 C 
ATOM   4318  C38 DYP     8      20.103  -1.161   8.196  1.00  0.00     0.027 C 
ATOM   4319  C39 DYP     8      18.878  -0.365   8.404  1.00  0.00    -0.031 C 
ATOM   4320  C21 DYP     8      14.229  -3.286   7.478  1.00  0.00    -0.031 C 
ATOM   4321  C21 DYP     8      14.542  -1.842   7.167  1.00  0.00     0.027 C 
ATOM   4322  C21 DYP     8      14.574  -1.429   5.672  1.00  0.00     0.004 C 
ATOM   4323  C21 DYP     8      13.208  -1.232   4.989  1.00  0.00     0.000 C 
ATOM   4324  C21 DYP     8      13.279  -0.581   3.595  1.00  0.00    -0.000 C 
ATOM   4325  C21 DYP     8      13.590   0.917   3.628  1.00  0.00    -0.005 C 
ATOM   4326  C21 DYP     8      13.261   1.604   2.308  1.00  0.00     0.005 C 
ATOM   4327  C31 DYP     8      18.046   0.031   7.436  1.00  0.00    -0.031 C 
ATOM   4328  C31 DYP     8      18.140  -0.226   5.958  1.00  0.00     0.027 C 
ATOM   4329  C31 DYP     8      18.540   0.936   5.053  1.00  0.00     0.004 C 
ATOM   4330  C31 DYP     8      18.119   0.599   3.602  1.00  0.00     0.000 C 
ATOM   4331  C31 DYP     8      18.539   1.655   2.559  1.00  0.00    -0.000 C 
ATOM   4332  C31 DYP     8      18.158   1.359   1.067  1.00  0.00    -0.005 C 
ATOM   4333  C31 DYP     8      18.845   2.091  -0.137  1.00  0.00     0.005 C 
ATOM   4334  C1  ERG     9       1.030 -18.941  15.568  1.00  0.00     0.017 C 
ATOM   4335  C2  ERG     9       0.364 -18.558  16.899  1.00  0.00     0.033 C 
ATOM   4336  C3  ERG     9      -0.609 -19.649  17.351  1.00  0.00     0.122 C 
ATOM   4337  O3  ERG     9      -1.083 -19.297  18.641  1.00  0.00    -0.395 OA
ATOM   4338  C4  ERG     9       0.079 -21.033  17.377  1.00  0.00     0.066 C 
ATOM   4339  C5  ERG     9       0.825 -21.336  16.090  1.00  0.00    -0.069 A 
ATOM   4340  C6  ERG     9       0.543 -22.408  15.318  1.00  0.00     0.004 A 
ATOM   4341  C7  ERG     9       1.051 -22.605  14.083  1.00  0.00     0.004 A 
ATOM   4342  C8  ERG     9       1.901 -21.768  13.460  1.00  0.00    -0.070 A 
ATOM   4343  C9  ERG     9       2.442 -20.509  14.171  1.00  0.00     0.027 A 
ATOM   4344  C10 ERG     9       1.835 -20.263  15.615  1.00  0.00    -0.013 A 
ATOM   4345  C11 ERG     9       4.006 -20.508  14.055  1.00  0.00     0.011 C 
ATOM   4346  C12 ERG     9       4.516 -20.733  12.615  1.00  0.00     0.011 C 
ATOM   4347  C13 ERG     9       3.941 -22.035  12.020  1.00  0.00    -0.032 C 
ATOM   4348  C14 ERG     9       2.416 -21.972  12.042  1.00  0.00     0.023 C 
ATOM   4349  C15 ERG     9       1.970 -23.157  11.128  1.00  0.00     0.010 C 
ATOM   4350  C16 ERG     9       3.043 -23.149  10.026  1.00  0.00     0.007 C 
ATOM   4351  C17 ERG     9       4.197 -22.214  10.515  1.00  0.00     0.002 C 
ATOM   4352  C18 ERG     9       4.371 -23.314  12.782  1.00  0.00     0.016 C 
ATOM   4353  C19 ERG     9       2.979 -20.136  16.668  1.00  0.00     0.021 C 
ATOM   4354  C20 ERG     9       5.556 -22.738  10.032  1.00  0.00     0.008 C 
ATOM   4355  C21 ERG     9       6.805 -22.004  10.569  1.00  0.00     0.014 C 
ATOM   4356  C22 ERG     9       5.692 -22.713   8.513  1.00  0.00    -0.026 C 
ATOM   4357  C23 ERG     9       5.453 -23.766   7.722  1.00  0.00    -0.026 C 
ATOM   4358  C24 ERG     9       5.585 -23.804   6.201  1.00  0.00     0.007 C 
ATOM   4359  C25 ERG     9       7.080 -23.771   5.814  1.00  0.00    -0.015 C 
ATOM   4360  C26 ERG     9       8.009 -24.853   6.445  1.00  0.00     0.010 C 
ATOM   4361  C27 ERG     9       7.173 -23.811   4.289  1.00  0.00     0.010 C 
ATOM   4362  C28 ERG     9       4.860 -24.914   5.389  1.00  0.00     0.014 C 
ATOM   4363  H3' ERG     9      -0.334 -18.916  19.107  1.00  0.00     0.210 HD
ATOM   4364  P   YOP    10      17.112 -11.482  18.939  1.00  0.00     0.406 P 
ATOM   4365  C1  YOP    10      14.656 -10.841  19.022  1.00  0.00     0.216 C 
ATOM   4366  C2  YOP    10      14.242  -9.921  17.840  1.00  0.00     0.180 C 
ATOM   4367  C3  YOP    10      14.673  -8.470  18.146  1.00  0.00     0.213 C 
ATOM   4368  O11 YOP    10      15.940 -10.664  19.568  1.00  0.00    -0.287 OA
ATOM   4369  O12 YOP    10      17.814 -10.332  18.137  1.00  0.00    -0.300 OA
ATOM   4370  O13 YOP    10      16.623 -12.488  17.980  1.00  0.00    -0.624 OA
ATOM   4371  O14 YOP    10      18.054 -11.848  19.999  1.00  0.00    -0.624 OA
ATOM   4372  C21 YOP    10      14.229 -11.376  15.970  1.00  0.00     0.259 C 
ATOM   4373  O21 YOP    10      14.816 -10.359  16.593  1.00  0.00    -0.312 OA
ATOM   4374  C22 YOP    10      15.087 -11.831  14.780  1.00  0.00     0.111 C 
ATOM   4375  O22 YOP    10      13.128 -11.822  16.243  1.00  0.00    -0.265 OA
ATOM   4376  C23 YOP    10      14.405 -12.925  13.896  1.00  0.00     0.010 C 
ATOM   4377  C24 YOP    10      15.132 -13.238  12.563  1.00  0.00     0.000 C 
ATOM   4378  C25 YOP    10      14.664 -14.516  11.811  1.00  0.00     0.000 C 
ATOM   4379  C26 YOP    10      15.134 -14.573  10.338  1.00  0.00     0.000 C 
ATOM   4380  C27 YOP    10      14.695 -15.818   9.528  1.00  0.00     0.004 C 
ATOM   4381  C28 YOP    10      14.819 -15.673   7.990  1.00  0.00     0.027 C 
ATOM   4382  C29 YOP    10      13.762 -14.750   7.443  1.00  0.00    -0.031 C 
ATOM   4383  C31 YOP    10      15.239  -7.338  16.102  1.00  0.00     0.258 C 
ATOM   4384  O31 YOP    10      14.351  -7.594  17.046  1.00  0.00    -0.319 OA
ATOM   4385  C32 YOP    10      14.485  -6.714  14.917  1.00  0.00     0.111 C 
ATOM   4386  O32 YOP    10      16.439  -7.523  16.168  1.00  0.00    -0.265 OA
ATOM   4387  C33 YOP    10      13.777  -7.768  14.034  1.00  0.00     0.010 C 
ATOM   4388  C34 YOP    10      14.540  -8.060  12.732  1.00  0.00     0.000 C 
ATOM   4389  C35 YOP    10      13.721  -8.878  11.722  1.00  0.00     0.000 C 
ATOM   4390  C36 YOP    10      14.225  -8.768  10.275  1.00  0.00     0.000 C 
ATOM   4391  C37 YOP    10      13.541  -9.809   9.364  1.00  0.00     0.004 C 
ATOM   4392  C38 YOP    10      14.058  -9.909   7.917  1.00  0.00     0.027 C 
ATOM   4393  C39 YOP    10      14.082  -8.574   7.238  1.00  0.00    -0.031 C 
ATOM   4394  C21 YOP    10      12.960 -14.949   6.382  1.00  0.00    -0.031 C 
ATOM   4395  C21 YOP    10      12.919 -16.152   5.470  1.00  0.00     0.027 C 
ATOM   4396  C21 YOP    10      13.623 -15.922   4.118  1.00  0.00     0.004 C 
ATOM   4397  C21 YOP    10      12.849 -14.937   3.230  1.00  0.00     0.000 C 
ATOM   4398  C21 YOP    10      13.521 -14.682   1.873  1.00  0.00     0.000 C 
ATOM   4399  C21 YOP    10      12.697 -13.885   0.863  1.00  0.00     0.000 C 
ATOM   4400  C21 YOP    10      12.553 -12.415   1.223  1.00  0.00    -0.000 C 
ATOM   4401  C21 YOP    10      13.742 -11.603   1.671  1.00  0.00    -0.005 C 
ATOM   4402  C21 YOP    10      13.369 -10.134   1.889  1.00  0.00     0.005 C 
ATOM   4403  C31 YOP    10      14.924  -8.220   6.280  1.00  0.00    -0.031 C 
ATOM   4404  C31 YOP    10      15.960  -9.123   5.755  1.00  0.00     0.027 C 
ATOM   4405  C31 YOP    10      16.314  -8.599   4.432  1.00  0.00     0.004 C 
ATOM   4406  C31 YOP    10      17.467  -9.525   4.163  1.00  0.00     0.000 C 
ATOM   4407  C31 YOP    10      17.452 -10.973   3.552  1.00  0.00    -0.000 C 
ATOM   4408  C31 YOP    10      17.458 -11.211   1.995  1.00  0.00    -0.005 C 
ATOM   4409  C31 YOP    10      17.157 -12.595   1.502  1.00  0.00     0.005 C 
ATOM   4410  H12 YOP    10      17.875  -9.553  18.685  1.00  0.00     0.223 HD
ATOM   4411  N   POP    11      17.407   5.141  19.601  1.00  0.00    -0.063 N 
ATOM   4412  P   POP    11      19.934   7.540  16.806  1.00  0.00     0.408 P 
ATOM   4413  C1  POP    11      21.833   6.000  17.672  1.00  0.00     0.216 C 
ATOM   4414  C2  POP    11      22.709   4.876  17.176  1.00  0.00     0.180 C 
ATOM   4415  C3  POP    11      21.736   3.686  17.252  1.00  0.00     0.213 C 
ATOM   4416  C11 POP    11      18.990   7.090  19.178  1.00  0.00     0.225 C 
ATOM   4417  O11 POP    11      21.105   6.544  16.571  1.00  0.00    -0.287 OA
ATOM   4418  C12 POP    11      18.492   5.991  20.182  1.00  0.00     0.307 C 
ATOM   4419  O12 POP    11      19.000   6.658  17.797  1.00  0.00    -0.287 OA
ATOM   4420  C13 POP    11      18.084   6.514  21.586  1.00  0.00     0.206 C 
ATOM   4421  O13 POP    11      20.459   8.700  17.549  1.00  0.00    -0.624 OA
ATOM   4422  O13 POP    11      17.025   6.077  22.120  1.00  0.00    -0.646 OA
ATOM   4423  O13 POP    11      18.926   7.223  22.193  1.00  0.00    -0.646 OA
ATOM   4424  O14 POP    11      19.224   7.793  15.535  1.00  0.00    -0.624 OA
ATOM   4425  C21 POP    11      24.033   6.095  15.612  1.00  0.00     0.259 C 
ATOM   4426  O21 POP    11      23.189   5.111  15.822  1.00  0.00    -0.312 OA
ATOM   4427  C22 POP    11      24.315   6.211  14.103  1.00  0.00     0.111 C 
ATOM   4428  O22 POP    11      24.574   6.790  16.453  1.00  0.00    -0.265 OA
ATOM   4429  C23 POP    11      23.017   6.462  13.306  1.00  0.00     0.010 C 
ATOM   4430  C24 POP    11      23.302   6.759  11.828  1.00  0.00     0.000 C 
ATOM   4431  C25 POP    11      22.023   7.080  11.029  1.00  0.00     0.000 C 
ATOM   4432  C26 POP    11      21.212   5.901  10.492  1.00  0.00     0.000 C 
ATOM   4433  C27 POP    11      21.846   5.365   9.218  1.00  0.00     0.004 C 
ATOM   4434  C28 POP    11      21.022   4.212   8.633  1.00  0.00     0.027 C 
ATOM   4435  C29 POP    11      21.881   3.421   7.678  1.00  0.00    -0.031 C 
ATOM   4436  C31 POP    11      20.881   3.413  15.199  1.00  0.00     0.359 C 
ATOM   4437  O31 POP    11      20.575   3.988  16.351  1.00  0.00    -0.311 OA
ATOM   4438  C32 POP    11      19.676   3.566  14.039  1.00  0.00     0.000 C 
ATOM   4439  O32 POP    11      21.842   2.662  15.278  1.00  0.00    -0.253 OA
ATOM   4440  C33 POP    11      19.468   2.734  12.636  1.00  0.00     0.000 C 
ATOM   4441  C34 POP    11      18.215   2.858  11.823  1.00  0.00     0.000 C 
ATOM   4442  C35 POP    11      17.944   4.326  11.668  1.00  0.00     0.000 C 
ATOM   4443  C36 POP    11      17.144   4.582  10.409  1.00  0.00     0.000 C 
ATOM   4444  C37 POP    11      16.850   6.064  10.178  1.00  0.00     0.000 C 
ATOM   4445  C38 POP    11      15.898   6.289   8.992  1.00  0.00     0.000 C 
ATOM   4446  C39 POP    11      16.625   6.209   7.638  1.00  0.00     0.000 C 
ATOM   4447  C21 POP    11      21.646   3.163   6.385  1.00  0.00    -0.031 C 
ATOM   4448  C21 POP    11      20.444   3.619   5.605  1.00  0.00     0.027 C 
ATOM   4449  C21 POP    11      20.626   4.915   4.811  1.00  0.00     0.004 C 
ATOM   4450  C21 POP    11      20.552   6.166   5.690  1.00  0.00     0.000 C 
ATOM   4451  C21 POP    11      20.448   7.472   4.889  1.00  0.00     0.000 C 
ATOM   4452  C21 POP    11      21.752   7.953   4.227  1.00  0.00     0.000 C 
ATOM   4453  C21 POP    11      21.818   9.485   4.053  1.00  0.00    -0.000 C 
ATOM   4454  C21 POP    11      20.486  10.170   3.626  1.00  0.00    -0.005 C 
ATOM   4455  C21 POP    11      19.756   9.645   2.390  1.00  0.00     0.005 C 
ATOM   4456  C31 POP    11      15.716   6.141   6.396  1.00  0.00     0.000 C 
ATOM   4457  C31 POP    11      16.505   5.784   5.119  1.00  0.00     0.000 C 
ATOM   4458  C31 POP    11      16.060   6.528   3.844  1.00  0.00     0.000 C 
ATOM   4459  C31 POP    11      17.094   6.477   2.726  1.00  0.00     0.000 C 
ATOM   4460  C31 POP    11      17.347   5.091   2.238  1.00  0.00    -0.000 C 
ATOM   4461  C31 POP    11      18.312   5.112   1.068  1.00  0.00    -0.005 C 
ATOM   4462  C31 POP    11      19.810   5.367   1.211  1.00  0.00     0.005 C 
ATOM   4463  HN1 POP    11      16.583   5.769  19.536  1.00  0.00     0.275 HD
ATOM   4464  HN2 POP    11      17.664   4.806  18.652  1.00  0.00     0.275 HD
ATOM   4465  HN3 POP    11      17.148   4.373  20.259  1.00  0.00     0.275 HD
ATOM   4466  C1  ERG    12     -20.283  -8.356  15.556  1.00  0.00     0.017 C 
ATOM   4467  C2  ERG    12     -20.096  -8.638  17.048  1.00  0.00     0.033 C 
ATOM   4468  C3  ERG    12     -18.713  -9.242  17.306  1.00  0.00     0.122 C 
ATOM   4469  O3  ERG    12     -18.545  -9.369  18.703  1.00  0.00    -0.395 OA
ATOM   4470  C4  ERG    12     -17.548  -8.404  16.747  1.00  0.00     0.066 C 
ATOM   4471  C5  ERG    12     -17.749  -8.104  15.284  1.00  0.00    -0.069 C 
ATOM   4472  C6  ERG    12     -16.810  -8.367  14.348  1.00  0.00     0.004 C 
ATOM   4473  C7  ERG    12     -17.003  -8.177  13.022  1.00  0.00     0.004 C 
ATOM   4474  C8  ERG    12     -18.168  -7.776  12.476  1.00  0.00    -0.070 C 
ATOM   4475  C9  ERG    12     -19.383  -7.433  13.370  1.00  0.00     0.027 C 
ATOM   4476  C10 ERG    12     -19.141  -7.514  14.919  1.00  0.00    -0.013 C 
ATOM   4477  C11 ERG    12     -20.139  -6.146  12.895  1.00  0.00     0.011 C 
ATOM   4478  C12 ERG    12     -20.357  -6.118  11.374  1.00  0.00     0.011 C 
ATOM   4479  C13 ERG    12     -19.031  -6.328  10.610  1.00  0.00    -0.032 C 
ATOM   4480  C14 ERG    12     -18.427  -7.669  10.975  1.00  0.00     0.023 C 
ATOM   4481  C15 ERG    12     -17.344  -7.938   9.875  1.00  0.00     0.010 C 
ATOM   4482  C16 ERG    12     -17.885  -7.213   8.621  1.00  0.00     0.007 C 
ATOM   4483  C17 ERG    12     -19.155  -6.446   9.086  1.00  0.00     0.002 C 
ATOM   4484  C18 ERG    12     -18.024  -5.203  10.937  1.00  0.00     0.016 C 
ATOM   4485  C19 ERG    12     -19.227  -6.080  15.511  1.00  0.00     0.021 C 
ATOM   4486  C20 ERG    12     -19.516  -5.161   8.324  1.00  0.00     0.008 C 
ATOM   4487  C21 ERG    12     -20.003  -5.559   6.914  1.00  0.00     0.014 C 
ATOM   4488  C22 ERG    12     -18.406  -4.185   7.960  1.00  0.00    -0.026 C 
ATOM   4489  C23 ERG    12     -18.224  -2.929   8.403  1.00  0.00    -0.026 C 
ATOM   4490  C24 ERG    12     -17.084  -2.009   7.982  1.00  0.00     0.007 C 
ATOM   4491  C25 ERG    12     -15.761  -2.350   8.658  1.00  0.00    -0.015 C 
ATOM   4492  C26 ERG    12     -14.567  -1.516   8.124  1.00  0.00     0.010 C 
ATOM   4493  C27 ERG    12     -15.956  -2.152  10.153  1.00  0.00     0.010 C 
ATOM   4494  C28 ERG    12     -16.882  -2.023   6.453  1.00  0.00     0.014 C 
ATOM   4495  H3' ERG    12     -18.222 -10.266  18.844  1.00  0.00     0.210 HD
ATOM   4496  C1  ERG    13       3.629  22.624  15.063  1.00  0.00     0.017 C 
ATOM   4497  C2  ERG    13       3.097  22.656  16.471  1.00  0.00     0.033 C 
ATOM   4498  C3  ERG    13       3.829  21.631  17.381  1.00  0.00     0.122 C 
ATOM   4499  O3  ERG    13       3.337  21.758  18.700  1.00  0.00    -0.395 OA
ATOM   4500  C4  ERG    13       5.348  21.867  17.422  1.00  0.00     0.066 C 
ATOM   4501  C5  ERG    13       5.830  21.697  16.038  1.00  0.00    -0.069 C 
ATOM   4502  C6  ERG    13       6.690  20.733  15.638  1.00  0.00     0.004 C 
ATOM   4503  C7  ERG    13       7.075  20.490  14.395  1.00  0.00     0.004 C 
ATOM   4504  C8  ERG    13       6.561  21.129  13.419  1.00  0.00    -0.070 C 
ATOM   4505  C9  ERG    13       5.433  22.097  13.708  1.00  0.00     0.027 C 
ATOM   4506  C10 ERG    13       5.141  22.625  15.096  1.00  0.00    -0.013 C 
ATOM   4507  C11 ERG    13       5.821  23.162  12.983  1.00  0.00     0.010 C 
ATOM   4508  C12 ERG    13       6.001  22.664  11.633  1.00  0.00     0.001 C 
ATOM   4509  C13 ERG    13       7.617  21.989  11.412  1.00  0.00    -0.024 C 
ATOM   4510  C14 ERG    13       6.939  20.900  12.012  1.00  0.00     0.024 C 
ATOM   4511  C15 ERG    13       7.786  19.794  11.766  1.00  0.00     0.010 C 
ATOM   4512  C16 ERG    13       8.317  19.909  10.415  1.00  0.00     0.006 C 
ATOM   4513  C17 ERG    13       8.427  21.548  10.157  1.00  0.00    -0.000 C 
ATOM   4514  C18 ERG    13       9.147  22.020  12.019  1.00  0.00     0.017 C 
ATOM   4515  C19 ERG    13       5.604  24.059  15.506  1.00  0.00     0.021 C 
ATOM   4516  C20 ERG    13       9.343  22.954   8.858  1.00  0.00    -0.011 C 
ATOM   4517  C21 ERG    13       9.018  24.415   8.223  1.00  0.00     0.011 C 
ATOM   4518  C22 ERG    13       8.900  22.943   7.152  1.00  0.00     0.000 C 
ATOM   4519  C23 ERG    13       9.677  22.602   6.478  1.00  0.00     0.000 C 
ATOM   4520  C24 ERG    13       9.690  21.335   4.403  1.00  0.00    -0.002 C 
ATOM   4521  C25 ERG    13       9.632  21.838   3.216  1.00  0.00    -0.018 C 
ATOM   4522  C26 ERG    13       9.409  20.648   2.260  1.00  0.00     0.010 C 
ATOM   4523  C27 ERG    13       8.541  22.781   3.679  1.00  0.00     0.010 C 
ATOM   4524  C28 ERG    13      10.851  19.763   4.297  1.00  0.00     0.000 C 
ATOM   4525  H3' ERG    13       3.505  22.678  18.916  1.00  0.00     0.210 HD
ATOM   4526  C1  ERG    14     -16.479  22.362  17.198  1.00  0.00     0.017 C 
ATOM   4527  C2  ERG    14     -15.573  21.674  18.212  1.00  0.00     0.033 C 
ATOM   4528  C3  ERG    14     -14.796  20.554  17.540  1.00  0.00     0.122 C 
ATOM   4529  O3  ERG    14     -13.932  20.218  18.589  1.00  0.00    -0.395 OA
ATOM   4530  C4  ERG    14     -14.029  20.734  16.253  1.00  0.00     0.066 C 
ATOM   4531  C5  ERG    14     -14.898  21.577  15.353  1.00  0.00    -0.069 A 
ATOM   4532  C6  ERG    14     -15.075  21.245  14.063  1.00  0.00     0.004 A 
ATOM   4533  C7  ERG    14     -15.876  21.916  13.220  1.00  0.00     0.004 A 
ATOM   4534  C8  ERG    14     -16.684  22.936  13.579  1.00  0.00    -0.070 A 
ATOM   4535  C9  ERG    14     -16.668  23.506  14.996  1.00  0.00     0.027 A 
ATOM   4536  C10 ERG    14     -15.660  22.785  15.988  1.00  0.00    -0.013 A 
ATOM   4537  C11 ERG    14     -16.464  25.030  14.899  1.00  0.00     0.011 C 
ATOM   4538  C12 ERG    14     -17.333  25.857  13.910  1.00  0.00     0.011 C 
ATOM   4539  C13 ERG    14     -17.477  25.162  12.532  1.00  0.00    -0.032 C 
ATOM   4540  C14 ERG    14     -17.651  23.689  12.632  1.00  0.00     0.023 C 
ATOM   4541  C15 ERG    14     -17.794  23.232  11.144  1.00  0.00     0.010 C 
ATOM   4542  C16 ERG    14     -18.360  24.521  10.422  1.00  0.00     0.007 C 
ATOM   4543  C17 ERG    14     -18.240  25.816  11.337  1.00  0.00     0.002 C 
ATOM   4544  C18 ERG    14     -16.279  24.888  11.871  1.00  0.00     0.016 C 
ATOM   4545  C19 ERG    14     -14.567  23.719  16.581  1.00  0.00     0.021 C 
ATOM   4546  C20 ERG    14     -17.781  27.139  10.524  1.00  0.00     0.008 C 
ATOM   4547  C21 ERG    14     -17.504  28.440  11.341  1.00  0.00     0.014 C 
ATOM   4548  C22 ERG    14     -18.763  27.348   9.399  1.00  0.00    -0.026 C 
ATOM   4549  C23 ERG    14     -18.434  27.260   8.093  1.00  0.00    -0.026 C 
ATOM   4550  C24 ERG    14     -19.253  27.399   6.843  1.00  0.00     0.007 C 
ATOM   4551  C25 ERG    14     -19.242  28.676   6.009  1.00  0.00    -0.015 C 
ATOM   4552  C26 ERG    14     -19.805  29.851   6.806  1.00  0.00     0.010 C 
ATOM   4553  C27 ERG    14     -17.877  29.057   5.407  1.00  0.00     0.010 C 
ATOM   4554  C28 ERG    14     -18.732  26.272   5.920  1.00  0.00     0.014 C 
ATOM   4555  H3' ERG    14     -13.684  19.394  18.163  1.00  0.00     0.210 HD
ATOM   4556  C1  ERG    15       7.801 -24.470  14.962  1.00  0.00     0.017 C 
ATOM   4557  C2  ERG    15       8.036 -24.248  16.466  1.00  0.00     0.033 C 
ATOM   4558  C3  ERG    15       6.887 -24.753  17.351  1.00  0.00     0.122 C 
ATOM   4559  O3  ERG    15       7.274 -24.598  18.705  1.00  0.00    -0.395 OA
ATOM   4560  C4  ERG    15       6.590 -26.238  17.087  1.00  0.00     0.066 C 
ATOM   4561  C5  ERG    15       6.309 -26.443  15.622  1.00  0.00    -0.069 A 
ATOM   4562  C6  ERG    15       5.124 -26.963  15.221  1.00  0.00     0.004 A 
ATOM   4563  C7  ERG    15       4.743 -27.060  13.941  1.00  0.00     0.004 A 
ATOM   4564  C8  ERG    15       5.504 -26.607  12.927  1.00  0.00    -0.070 A 
ATOM   4565  C9  ERG    15       6.904 -25.986  13.119  1.00  0.00     0.027 A 
ATOM   4566  C10 ERG    15       7.401 -25.929  14.614  1.00  0.00    -0.013 A 
ATOM   4567  C11 ERG    15       7.937 -26.567  12.094  1.00  0.00     0.011 C 
ATOM   4568  C12 ERG    15       7.434 -26.633  10.634  1.00  0.00     0.011 C 
ATOM   4569  C13 ERG    15       6.083 -27.293  10.594  1.00  0.00    -0.033 C 
ATOM   4570  C14 ERG    15       5.083 -26.584  11.508  1.00  0.00     0.023 C 
ATOM   4571  C15 ERG    15       3.637 -26.976  11.104  1.00  0.00     0.010 C 
ATOM   4572  C16 ERG    15       3.752 -27.184   9.584  1.00  0.00     0.006 C 
ATOM   4573  C17 ERG    15       5.309 -27.192   9.277  1.00  0.00    -0.002 C 
ATOM   4574  C18 ERG    15       6.366 -28.704  11.063  1.00  0.00     0.016 C 
ATOM   4575  C19 ERG    15       8.716 -26.760  14.778  1.00  0.00     0.021 C 
ATOM   4576  C20 ERG    15       5.923 -27.794   7.975  1.00  0.00    -0.009 C 
ATOM   4577  C21 ERG    15       5.035 -27.358   6.837  1.00  0.00     0.011 C 
ATOM   4578  C22 ERG    15       5.927 -29.168   7.665  1.00  0.00    -0.001 C 
ATOM   4579  C23 ERG    15       6.807 -30.274   7.509  1.00  0.00    -0.000 C 
ATOM   4580  C24 ERG    15       6.608 -31.964   7.165  1.00  0.00    -0.011 C 
ATOM   4581  C25 ERG    15       6.637 -32.473   5.743  1.00  0.00    -0.019 C 
ATOM   4582  C26 ERG    15       6.191 -31.560   4.544  1.00  0.00     0.010 C 
ATOM   4583  C27 ERG    15       8.042 -32.534   5.588  1.00  0.00     0.010 C 
ATOM   4584  C28 ERG    15       6.716 -33.127   8.309  1.00  0.00     0.011 C 
ATOM   4585  H3' ERG    15       6.901 -25.355  19.164  1.00  0.00     0.210 HD
ATOM   4586  N   POP    16     -15.532 -18.968  19.615  1.00  0.00    -0.063 N 
ATOM   4587  P   POP    16     -19.751 -17.438  17.610  1.00  0.00     0.408 P 
ATOM   4588  C1  POP    16     -19.999 -19.535  16.124  1.00  0.00     0.216 C 
ATOM   4589  C2  POP    16     -19.572 -20.231  14.788  1.00  0.00     0.180 C 
ATOM   4590  C3  POP    16     -19.896 -19.362  13.523  1.00  0.00     0.213 C 
ATOM   4591  C11 POP    16     -17.747 -18.862  18.512  1.00  0.00     0.225 C 
ATOM   4592  O11 POP    16     -19.308 -18.299  16.353  1.00  0.00    -0.287 OA
ATOM   4593  C12 POP    16     -17.012 -18.953  19.847  1.00  0.00     0.307 C 
ATOM   4594  O12 POP    16     -18.902 -18.078  18.765  1.00  0.00    -0.287 OA
ATOM   4595  C13 POP    16     -17.620 -20.083  20.711  1.00  0.00     0.206 C 
ATOM   4596  O13 POP    16     -19.274 -16.050  17.433  1.00  0.00    -0.624 OA
ATOM   4597  O13 POP    16     -16.854 -20.937  21.219  1.00  0.00    -0.646 OA
ATOM   4598  O13 POP    16     -18.853 -20.099  20.917  1.00  0.00    -0.646 OA
ATOM   4599  O14 POP    16     -21.195 -17.664  17.832  1.00  0.00    -0.624 OA
ATOM   4600  C21 POP    16     -17.918 -21.824  15.088  1.00  0.00     0.259 C 
ATOM   4601  O21 POP    16     -18.168 -20.576  14.753  1.00  0.00    -0.312 OA
ATOM   4602  C22 POP    16     -16.510 -22.215  14.639  1.00  0.00     0.111 C 
ATOM   4603  O22 POP    16     -18.693 -22.598  15.629  1.00  0.00    -0.265 OA
ATOM   4604  C23 POP    16     -16.435 -22.480  13.105  1.00  0.00     0.010 C 
ATOM   4605  C24 POP    16     -15.821 -21.340  12.256  1.00  0.00     0.000 C 
ATOM   4606  C25 POP    16     -15.864 -21.552  10.726  1.00  0.00     0.000 C 
ATOM   4607  C26 POP    16     -17.178 -21.129  10.070  1.00  0.00     0.000 C 
ATOM   4608  C27 POP    16     -17.160 -21.308   8.532  1.00  0.00     0.004 C 
ATOM   4609  C28 POP    16     -18.566 -21.298   7.884  1.00  0.00     0.027 C 
ATOM   4610  C29 POP    16     -19.161 -19.931   8.113  1.00  0.00    -0.031 C 
ATOM   4611  C31 POP    16     -19.400 -17.406  12.353  1.00  0.00     0.258 C 
ATOM   4612  O31 POP    16     -19.095 -18.162  13.401  1.00  0.00    -0.319 OA
ATOM   4613  C32 POP    16     -18.599 -16.108  12.382  1.00  0.00     0.111 C 
ATOM   4614  O32 POP    16     -20.215 -17.703  11.497  1.00  0.00    -0.265 OA
ATOM   4615  C33 POP    16     -18.441 -15.547  10.947  1.00  0.00     0.010 C 
ATOM   4616  C34 POP    16     -17.475 -16.346  10.051  1.00  0.00     0.000 C 
ATOM   4617  C35 POP    16     -17.637 -16.019   8.551  1.00  0.00     0.000 C 
ATOM   4618  C36 POP    16     -16.770 -16.916   7.651  1.00  0.00     0.000 C 
ATOM   4619  C37 POP    16     -16.986 -16.713   6.140  1.00  0.00     0.000 C 
ATOM   4620  C38 POP    16     -16.327 -17.834   5.316  1.00  0.00     0.000 C 
ATOM   4621  C39 POP    16     -16.507 -17.691   3.796  1.00  0.00     0.000 C 
ATOM   4622  C21 POP    16     -19.667 -19.011   7.251  1.00  0.00    -0.031 C 
ATOM   4623  C21 POP    16     -19.847 -18.957   5.716  1.00  0.00     0.027 C 
ATOM   4624  C21 POP    16     -20.911 -19.841   4.896  1.00  0.00     0.004 C 
ATOM   4625  C21 POP    16     -21.200 -20.143   3.242  1.00  0.00     0.000 C 
ATOM   4626  C21 POP    16     -22.553 -19.965   2.236  1.00  0.00     0.000 C 
ATOM   4627  C21 POP    16     -22.275 -20.348   0.838  1.00  0.00     0.000 C 
ATOM   4628  C21 POP    16     -21.809 -19.380  -0.264  1.00  0.00    -0.000 C 
ATOM   4629  C21 POP    16     -20.312 -18.910  -0.211  1.00  0.00    -0.005 C 
ATOM   4630  C21 POP    16     -19.248 -19.961  -0.035  1.00  0.00     0.005 C 
ATOM   4631  C31 POP    16     -15.627 -18.696   3.039  1.00  0.00     0.000 C 
ATOM   4632  C31 POP    16     -16.011 -18.961   1.569  1.00  0.00     0.000 C 
ATOM   4633  C31 POP    16     -16.234 -17.737   0.676  1.00  0.00     0.000 C 
ATOM   4634  C31 POP    16     -15.101 -16.719   0.668  1.00  0.00     0.000 C 
ATOM   4635  C31 POP    16     -15.424 -15.608  -0.291  1.00  0.00    -0.000 C 
ATOM   4636  C31 POP    16     -14.310 -14.574  -0.299  1.00  0.00    -0.005 C 
ATOM   4637  C31 POP    16     -14.070 -13.858   1.031  1.00  0.00     0.005 C 
ATOM   4638  HN1 POP    16     -15.202 -19.917  19.353  1.00  0.00     0.275 HD
ATOM   4639  HN2 POP    16     -15.330 -18.278  18.865  1.00  0.00     0.275 HD
ATOM   4640  HN3 POP    16     -15.094 -18.697  20.513  1.00  0.00     0.275 HD
ATOM   4641  C1  ERG    17      11.633  24.131  15.082  1.00  0.00     0.017 C 
ATOM   4642  C2  ERG    17      11.757  23.721  16.491  1.00  0.00     0.033 C 
ATOM   4643  C3  ERG    17      13.187  23.839  17.148  1.00  0.00     0.122 C 
ATOM   4644  O3  ERG    17      13.499  23.518  18.510  1.00  0.00    -0.395 OA
ATOM   4645  C4  ERG    17      13.593  25.273  17.118  1.00  0.00     0.066 C 
ATOM   4646  C5  ERG    17      13.547  25.662  15.671  1.00  0.00    -0.069 A 
ATOM   4647  C6  ERG    17      14.644  26.029  15.009  1.00  0.00     0.004 A 
ATOM   4648  C7  ERG    17      14.664  26.257  13.678  1.00  0.00     0.004 A 
ATOM   4649  C8  ERG    17      13.614  26.115  12.854  1.00  0.00    -0.070 A 
ATOM   4650  C9  ERG    17      12.282  25.767  13.399  1.00  0.00     0.027 A 
ATOM   4651  C10 ERG    17      12.207  25.524  14.931  1.00  0.00    -0.013 A 
ATOM   4652  C11 ERG    17      11.391  26.890  12.825  1.00  0.00     0.011 C 
ATOM   4653  C12 ERG    17      11.211  26.934  11.298  1.00  0.00     0.011 C 
ATOM   4654  C13 ERG    17      12.569  27.189  10.759  1.00  0.00    -0.032 C 
ATOM   4655  C14 ERG    17      13.554  26.172  11.347  1.00  0.00     0.023 C 
ATOM   4656  C15 ERG    17      14.824  26.186  10.467  1.00  0.00     0.010 C 
ATOM   4657  C16 ERG    17      14.334  26.684   9.101  1.00  0.00     0.007 C 
ATOM   4658  C17 ERG    17      12.805  26.899   9.276  1.00  0.00     0.002 C 
ATOM   4659  C18 ERG    17      12.800  28.632  11.213  1.00  0.00     0.016 C 
ATOM   4660  C19 ERG    17      11.237  26.508  15.607  1.00  0.00     0.021 C 
ATOM   4661  C20 ERG    17      12.151  27.802   8.291  1.00  0.00     0.008 C 
ATOM   4662  C21 ERG    17      12.175  27.101   6.902  1.00  0.00     0.014 C 
ATOM   4663  C22 ERG    17      12.859  29.062   7.963  1.00  0.00    -0.026 C 
ATOM   4664  C23 ERG    17      12.371  30.219   8.262  1.00  0.00    -0.026 C 
ATOM   4665  C24 ERG    17      12.953  31.665   7.888  1.00  0.00     0.008 C 
ATOM   4666  C25 ERG    17      12.324  33.052   8.202  1.00  0.00     0.003 C 
ATOM   4667  C26 ERG    17      11.090  34.234   6.899  1.00  0.00     0.000 C 
ATOM   4668  C27 ERG    17      12.021  32.276   9.970  1.00  0.00     0.000 C 
ATOM   4669  C28 ERG    17      14.056  31.981   8.655  1.00  0.00     0.014 C 
ATOM   4670  H3' ERG    17      12.869  23.993  19.089  1.00  0.00     0.210 HD
ATOM   4671  C1  ERG    18      18.114 -22.664  15.664  1.00  0.00     0.017 C 
ATOM   4672  C2  ERG    18      17.012 -22.561  16.728  1.00  0.00     0.033 C 
ATOM   4673  C3  ERG    18      17.113 -21.234  17.495  1.00  0.00     0.122 C 
ATOM   4674  O3  ERG    18      16.074 -21.161  18.456  1.00  0.00    -0.395 OA
ATOM   4675  C4  ERG    18      16.964 -20.088  16.500  1.00  0.00     0.066 C 
ATOM   4676  C5  ERG    18      18.073 -20.217  15.502  1.00  0.00    -0.069 A 
ATOM   4677  C6  ERG    18      19.065 -19.308  15.493  1.00  0.00     0.004 A 
ATOM   4678  C7  ERG    18      20.140 -19.383  14.727  1.00  0.00     0.004 A 
ATOM   4679  C8  ERG    18      20.343 -20.381  13.891  1.00  0.00    -0.070 A 
ATOM   4680  C9  ERG    18      19.400 -21.611  13.737  1.00  0.00     0.027 A 
ATOM   4681  C10 ERG    18      18.119 -21.506  14.632  1.00  0.00    -0.013 A 
ATOM   4682  C11 ERG    18      19.159 -21.979  12.243  1.00  0.00     0.011 C 
ATOM   4683  C12 ERG    18      20.465 -22.013  11.450  1.00  0.00     0.011 C 
ATOM   4684  C13 ERG    18      21.286 -20.644  11.619  1.00  0.00    -0.032 C 
ATOM   4685  C14 ERG    18      21.549 -20.306  13.101  1.00  0.00     0.023 C 
ATOM   4686  C15 ERG    18      22.764 -19.321  13.127  1.00  0.00     0.010 C 
ATOM   4687  C16 ERG    18      23.689 -19.701  11.983  1.00  0.00     0.007 C 
ATOM   4688  C17 ERG    18      22.727 -20.481  11.118  1.00  0.00     0.002 C 
ATOM   4689  C18 ERG    18      20.784 -19.490  10.798  1.00  0.00     0.016 C 
ATOM   4690  C19 ERG    18      16.877 -21.605  13.712  1.00  0.00     0.021 C 
ATOM   4691  C20 ERG    18      23.217 -20.567   9.651  1.00  0.00     0.008 C 
ATOM   4692  C21 ERG    18      22.272 -21.435   8.854  1.00  0.00     0.014 C 
ATOM   4693  C22 ERG    18      24.708 -20.966   9.280  1.00  0.00    -0.026 C 
ATOM   4694  C23 ERG    18      25.755 -20.254   8.960  1.00  0.00    -0.026 C 
ATOM   4695  C24 ERG    18      27.121 -20.848   8.594  1.00  0.00     0.007 C 
ATOM   4696  C25 ERG    18      27.851 -19.710   7.990  1.00  0.00    -0.015 C 
ATOM   4697  C26 ERG    18      29.355 -19.869   7.864  1.00  0.00     0.010 C 
ATOM   4698  C27 ERG    18      27.294 -19.861   6.601  1.00  0.00     0.010 C 
ATOM   4699  C28 ERG    18      27.973 -21.224   9.648  1.00  0.00     0.014 C 
ATOM   4700  H3' ERG    18      15.714 -20.273  18.438  1.00  0.00     0.210 HD
ATOM   4701  C1  ERG    19     -25.847  -4.657  15.385  1.00  0.00     0.017 C 
ATOM   4702  C2  ERG    19     -26.402  -4.713  16.829  1.00  0.00     0.033 C 
ATOM   4703  C3  ERG    19     -26.838  -3.346  17.386  1.00  0.00     0.122 C 
ATOM   4704  O3  ERG    19     -27.543  -3.547  18.598  1.00  0.00    -0.395 OA
ATOM   4705  C4  ERG    19     -27.791  -2.640  16.420  1.00  0.00     0.066 C 
ATOM   4706  C5  ERG    19     -27.241  -2.590  15.022  1.00  0.00    -0.069 A 
ATOM   4707  C6  ERG    19     -27.121  -1.421  14.365  1.00  0.00     0.004 A 
ATOM   4708  C7  ERG    19     -26.584  -1.284  13.137  1.00  0.00     0.004 A 
ATOM   4709  C8  ERG    19     -26.053  -2.313  12.439  1.00  0.00    -0.070 A 
ATOM   4710  C9  ERG    19     -26.100  -3.756  13.007  1.00  0.00     0.027 A 
ATOM   4711  C10 ERG    19     -26.809  -3.941  14.405  1.00  0.00    -0.013 A 
ATOM   4712  C11 ERG    19     -26.624  -4.737  11.922  1.00  0.00     0.011 C 
ATOM   4713  C12 ERG    19     -25.972  -4.559  10.538  1.00  0.00     0.011 C 
ATOM   4714  C13 ERG    19     -26.059  -3.106  10.012  1.00  0.00    -0.032 C 
ATOM   4715  C14 ERG    19     -25.397  -2.208  11.060  1.00  0.00     0.023 C 
ATOM   4716  C15 ERG    19     -25.180  -0.856  10.338  1.00  0.00     0.010 C 
ATOM   4717  C16 ERG    19     -24.808  -1.278   8.900  1.00  0.00     0.007 C 
ATOM   4718  C17 ERG    19     -25.197  -2.797   8.756  1.00  0.00     0.002 C 
ATOM   4719  C18 ERG    19     -27.512  -2.580   9.826  1.00  0.00     0.016 C 
ATOM   4720  C19 ERG    19     -28.101  -4.815  14.280  1.00  0.00     0.021 C 
ATOM   4721  C20 ERG    19     -25.687  -3.185   7.335  1.00  0.00     0.008 C 
ATOM   4722  C21 ERG    19     -26.036  -4.685   7.101  1.00  0.00     0.014 C 
ATOM   4723  C22 ERG    19     -24.567  -2.898   6.354  1.00  0.00    -0.026 C 
ATOM   4724  C23 ERG    19     -24.742  -2.267   5.187  1.00  0.00    -0.026 C 
ATOM   4725  C24 ERG    19     -23.697  -1.941   4.155  1.00  0.00     0.007 C 
ATOM   4726  C25 ERG    19     -24.314  -2.079   2.761  1.00  0.00    -0.015 C 
ATOM   4727  C26 ERG    19     -23.204  -1.936   1.698  1.00  0.00     0.010 C 
ATOM   4728  C27 ERG    19     -25.091  -3.419   2.640  1.00  0.00     0.010 C 
ATOM   4729  C28 ERG    19     -23.284  -0.471   4.430  1.00  0.00     0.014 C 
ATOM   4730  H3' ERG    19     -28.211  -4.202  18.392  1.00  0.00     0.210 HD
ATOM   4731  P   POP    20      27.651   1.355  20.440  1.00  0.00     0.408 P 
ATOM   4732  C1  POP    20      28.342   1.339  17.887  1.00  0.00     0.216 C 
ATOM   4733  C2  POP    20      27.994   2.433  16.894  1.00  0.00     0.180 C 
ATOM   4734  O2  POP    20      31.503   2.197  21.527  1.00  0.00    -0.390 OA
ATOM   4735  C3  POP    20      29.063   2.456  15.847  1.00  0.00     0.213 C 
ATOM   4736  O3  POP    20      31.430   2.918  24.219  1.00  0.00    -0.390 OA
ATOM   4737  O4  POP    20      32.364   0.330  25.220  1.00  0.00    -0.390 OA
ATOM   4738  O5  POP    20      32.156  -1.933  23.558  1.00  0.00    -0.390 OA
ATOM   4739  O6  POP    20      30.325  -1.906  21.389  1.00  0.00    -0.390 OA
ATOM   4740  C11 POP    20      29.763   0.501  21.848  1.00  0.00     0.197 C 
ATOM   4741  O11 POP    20      27.348   1.282  18.895  1.00  0.00    -0.287 OA
ATOM   4742  C12 POP    20      30.417   1.802  22.344  1.00  0.00     0.181 C 
ATOM   4743  O12 POP    20      29.182   0.689  20.540  1.00  0.00    -0.279 OA
ATOM   4744  C13 POP    20      30.872   1.665  23.783  1.00  0.00     0.180 C 
ATOM   4745  O13 POP    20      27.707   2.776  20.863  1.00  0.00    -0.624 OA
ATOM   4746  C14 POP    20      31.858   0.501  23.880  1.00  0.00     0.180 C 
ATOM   4747  O14 POP    20      26.767   0.435  21.175  1.00  0.00    -0.624 OA
ATOM   4748  C15 POP    20      31.272  -0.802  23.364  1.00  0.00     0.180 C 
ATOM   4749  C16 POP    20      30.800  -0.646  21.908  1.00  0.00     0.181 C 
ATOM   4750  C21 POP    20      25.707   2.721  16.671  1.00  0.00     0.259 C 
ATOM   4751  O21 POP    20      26.768   2.148  16.233  1.00  0.00    -0.312 OA
ATOM   4752  C22 POP    20      24.612   2.354  15.684  1.00  0.00     0.111 C 
ATOM   4753  O22 POP    20      25.589   3.475  17.620  1.00  0.00    -0.265 OA
ATOM   4754  C23 POP    20      24.971   2.532  14.185  1.00  0.00     0.010 C 
ATOM   4755  C24 POP    20      25.272   1.192  13.509  1.00  0.00     0.000 C 
ATOM   4756  C25 POP    20      25.644   1.239  12.041  1.00  0.00     0.000 C 
ATOM   4757  C26 POP    20      27.107   1.544  11.935  1.00  0.00     0.000 C 
ATOM   4758  C27 POP    20      27.489   1.710  10.480  1.00  0.00     0.004 C 
ATOM   4759  C28 POP    20      28.941   2.021  10.332  1.00  0.00     0.027 C 
ATOM   4760  C29 POP    20      29.696   0.718  10.411  1.00  0.00    -0.031 C 
ATOM   4761  C31 POP    20      29.322   3.464  13.861  1.00  0.00     0.258 C 
ATOM   4762  O31 POP    20      28.749   3.592  15.020  1.00  0.00    -0.319 OA
ATOM   4763  C32 POP    20      29.420   4.943  13.268  1.00  0.00     0.111 C 
ATOM   4764  O32 POP    20      29.639   2.369  13.408  1.00  0.00    -0.265 OA
ATOM   4765  C33 POP    20      30.342   5.388  12.099  1.00  0.00     0.010 C 
ATOM   4766  C34 POP    20      30.346   6.746  11.415  1.00  0.00     0.000 C 
ATOM   4767  C35 POP    20      29.117   6.983  10.546  1.00  0.00     0.000 C 
ATOM   4768  C36 POP    20      28.837   5.856   9.518  1.00  0.00     0.000 C 
ATOM   4769  C37 POP    20      29.962   5.580   8.480  1.00  0.00     0.000 C 
ATOM   4770  C38 POP    20      30.423   6.844   7.709  1.00  0.00     0.000 C 
ATOM   4771  C39 POP    20      31.435   6.666   6.544  1.00  0.00     0.000 C 
ATOM   4772  C21 POP    20      30.858   0.615   9.810  1.00  0.00    -0.031 C 
ATOM   4773  C21 POP    20      31.445   1.822   9.071  1.00  0.00     0.027 C 
ATOM   4774  C21 POP    20      31.883   1.870   7.686  1.00  0.00     0.004 C 
ATOM   4775  C21 POP    20      30.560   1.564   7.203  1.00  0.00     0.000 C 
ATOM   4776  C21 POP    20      30.673   1.599   5.810  1.00  0.00     0.000 C 
ATOM   4777  C21 POP    20      29.351   1.283   5.180  1.00  0.00     0.000 C 
ATOM   4778  C21 POP    20      29.341   1.271   3.701  1.00  0.00    -0.000 C 
ATOM   4779  C21 POP    20      29.919   0.004   3.006  1.00  0.00    -0.005 C 
ATOM   4780  C21 POP    20      29.584  -1.448   2.994  1.00  0.00     0.005 C 
ATOM   4781  C31 POP    20      31.075   5.613   5.490  1.00  0.00     0.000 C 
ATOM   4782  C31 POP    20      29.949   6.039   4.544  1.00  0.00     0.000 C 
ATOM   4783  C31 POP    20      30.111   5.514   3.108  1.00  0.00     0.000 C 
ATOM   4784  C31 POP    20      28.963   5.975   2.183  1.00  0.00     0.000 C 
ATOM   4785  C31 POP    20      27.554   5.352   2.372  1.00  0.00    -0.000 C 
ATOM   4786  C31 POP    20      26.737   5.894   3.561  1.00  0.00    -0.005 C 
ATOM   4787  C31 POP    20      25.212   6.012   3.375  1.00  0.00     0.005 C 
ATOM   4788  HO2 POP    20      31.609   3.148  21.601  1.00  0.00     0.210 HD
ATOM   4789  HO3 POP    20      32.175   3.142  23.638  1.00  0.00     0.210 HD
ATOM   4790  HO4 POP    20      33.233  -0.066  25.184  1.00  0.00     0.210 HD
ATOM   4791  HO5 POP    20      31.624  -2.585  24.018  1.00  0.00     0.210 HD
ATOM   4792  HO6 POP    20      30.422  -1.789  20.432  1.00  0.00     0.210 HD
ATOM   4793  C1  ERG    21      25.933  -8.188  15.231  1.00  0.00     0.017 C 
ATOM   4794  C2  ERG    21      26.357  -8.709  16.606  1.00  0.00     0.033 C 
ATOM   4795  C3  ERG    21      27.023  -7.569  17.385  1.00  0.00     0.122 C 
ATOM   4796  O3  ERG    21      27.385  -8.037  18.668  1.00  0.00    -0.395 OA
ATOM   4797  C4  ERG    21      26.079  -6.360  17.540  1.00  0.00     0.066 C 
ATOM   4798  C5  ERG    21      25.616  -5.829  16.197  1.00  0.00    -0.069 C 
ATOM   4799  C6  ERG    21      25.720  -4.546  15.747  1.00  0.00     0.004 C 
ATOM   4800  C7  ERG    21      25.374  -4.144  14.491  1.00  0.00     0.004 C 
ATOM   4801  C8  ERG    21      24.954  -4.996  13.526  1.00  0.00    -0.070 C 
ATOM   4802  C9  ERG    21      24.794  -6.474  13.834  1.00  0.00     0.027 C 
ATOM   4803  C10 ERG    21      25.026  -6.932  15.302  1.00  0.00    -0.013 C 
ATOM   4804  C11 ERG    21      23.479  -7.048  13.252  1.00  0.00     0.011 C 
ATOM   4805  C12 ERG    21      23.290  -6.779  11.753  1.00  0.00     0.011 C 
ATOM   4806  C13 ERG    21      23.360  -5.297  11.503  1.00  0.00    -0.032 C 
ATOM   4807  C14 ERG    21      24.711  -4.751  12.037  1.00  0.00     0.023 C 
ATOM   4808  C15 ERG    21      24.981  -3.385  11.346  1.00  0.00     0.010 C 
ATOM   4809  C16 ERG    21      24.297  -3.506   9.963  1.00  0.00     0.007 C 
ATOM   4810  C17 ERG    21      23.422  -4.841   9.994  1.00  0.00     0.002 C 
ATOM   4811  C18 ERG    21      22.173  -4.781  12.356  1.00  0.00     0.016 C 
ATOM   4812  C19 ERG    21      23.673  -7.276  16.001  1.00  0.00     0.021 C 
ATOM   4813  C20 ERG    21      22.116  -4.863   9.145  1.00  0.00     0.008 C 
ATOM   4814  C21 ERG    21      21.273  -6.142   9.098  1.00  0.00     0.014 C 
ATOM   4815  C22 ERG    21      22.372  -4.548   7.658  1.00  0.00    -0.026 C 
ATOM   4816  C23 ERG    21      22.064  -3.457   6.949  1.00  0.00    -0.026 C 
ATOM   4817  C24 ERG    21      22.236  -3.007   5.585  1.00  0.00     0.007 C 
ATOM   4818  C25 ERG    21      20.944  -2.783   4.822  1.00  0.00    -0.015 C 
ATOM   4819  C26 ERG    21      21.366  -2.640   3.369  1.00  0.00     0.010 C 
ATOM   4820  C27 ERG    21      20.040  -4.018   4.965  1.00  0.00     0.010 C 
ATOM   4821  C28 ERG    21      22.948  -1.647   5.875  1.00  0.00     0.014 C 
ATOM   4822  H3' ERG    21      26.780  -8.762  18.875  1.00  0.00     0.210 HD
ATOM   4823  P   YOP    22     -24.174  16.275  19.414  1.00  0.00     0.406 P 
ATOM   4824  C1  YOP    22     -22.711  15.903  17.245  1.00  0.00     0.216 C 
ATOM   4825  C2  YOP    22     -23.006  15.737  15.716  1.00  0.00     0.180 C 
ATOM   4826  C3  YOP    22     -24.175  14.735  15.513  1.00  0.00     0.213 C 
ATOM   4827  O11 YOP    22     -23.737  16.639  17.928  1.00  0.00    -0.287 OA
ATOM   4828  O12 YOP    22     -24.988  14.941  19.213  1.00  0.00    -0.300 OA
ATOM   4829  O13 YOP    22     -25.102  17.278  19.979  1.00  0.00    -0.624 OA
ATOM   4830  O14 YOP    22     -22.972  15.909  20.182  1.00  0.00    -0.624 OA
ATOM   4831  C21 YOP    22     -22.524  17.691  14.433  1.00  0.00     0.259 C 
ATOM   4832  O21 YOP    22     -23.397  16.962  15.085  1.00  0.00    -0.312 OA
ATOM   4833  C22 YOP    22     -23.320  18.801  13.759  1.00  0.00     0.111 C 
ATOM   4834  O22 YOP    22     -21.317  17.529  14.410  1.00  0.00    -0.265 OA
ATOM   4835  C23 YOP    22     -22.643  19.379  12.508  1.00  0.00     0.010 C 
ATOM   4836  C24 YOP    22     -23.525  20.445  11.907  1.00  0.00     0.000 C 
ATOM   4837  C25 YOP    22     -23.063  20.890  10.529  1.00  0.00     0.000 C 
ATOM   4838  C26 YOP    22     -23.273  20.086   9.269  1.00  0.00     0.000 C 
ATOM   4839  C27 YOP    22     -22.574  20.669   8.012  1.00  0.00     0.004 C 
ATOM   4840  C28 YOP    22     -22.603  19.647   6.865  1.00  0.00     0.027 C 
ATOM   4841  C29 YOP    22     -21.922  20.205   5.632  1.00  0.00    -0.031 C 
ATOM   4842  C31 YOP    22     -25.604  15.392  13.739  1.00  0.00     0.258 C 
ATOM   4843  O31 YOP    22     -24.585  14.607  14.127  1.00  0.00    -0.319 OA
ATOM   4844  C32 YOP    22     -26.148  14.956  12.380  1.00  0.00     0.111 C 
ATOM   4845  O32 YOP    22     -26.114  16.271  14.402  1.00  0.00    -0.265 OA
ATOM   4846  C33 YOP    22     -25.101  15.001  11.249  1.00  0.00     0.010 C 
ATOM   4847  C34 YOP    22     -25.761  14.970   9.865  1.00  0.00     0.000 C 
ATOM   4848  C35 YOP    22     -24.768  15.218   8.721  1.00  0.00     0.000 C 
ATOM   4849  C36 YOP    22     -25.396  15.300   7.312  1.00  0.00     0.000 C 
ATOM   4850  C37 YOP    22     -24.441  16.030   6.345  1.00  0.00     0.004 C 
ATOM   4851  C38 YOP    22     -24.953  16.312   4.908  1.00  0.00     0.027 C 
ATOM   4852  C39 YOP    22     -25.101  15.066   4.070  1.00  0.00    -0.031 C 
ATOM   4853  C21 YOP    22     -20.740  19.993   5.088  1.00  0.00    -0.031 C 
ATOM   4854  C21 YOP    22     -19.716  19.070   5.615  1.00  0.00     0.027 C 
ATOM   4855  C21 YOP    22     -19.702  17.792   4.766  1.00  0.00     0.004 C 
ATOM   4856  C21 YOP    22     -21.002  16.956   4.760  1.00  0.00     0.000 C 
ATOM   4857  C21 YOP    22     -20.821  15.558   4.121  1.00  0.00     0.000 C 
ATOM   4858  C21 YOP    22     -20.424  15.516   2.630  1.00  0.00     0.000 C 
ATOM   4859  C21 YOP    22     -19.969  14.119   2.153  1.00  0.00    -0.000 C 
ATOM   4860  C21 YOP    22     -20.998  12.975   2.205  1.00  0.00    -0.005 C 
ATOM   4861  C21 YOP    22     -22.212  13.174   1.324  1.00  0.00     0.005 C 
ATOM   4862  C31 YOP    22     -26.112  14.770   3.233  1.00  0.00    -0.031 C 
ATOM   4863  C31 YOP    22     -27.327  15.620   2.944  1.00  0.00     0.027 C 
ATOM   4864  C31 YOP    22     -27.050  16.684   1.939  1.00  0.00     0.004 C 
ATOM   4865  C31 YOP    22     -26.150  16.104   0.830  1.00  0.00     0.000 C 
ATOM   4866  C31 YOP    22     -25.939  17.180  -0.023  1.00  0.00    -0.000 C 
ATOM   4867  C31 YOP    22     -25.365  18.184   0.947  1.00  0.00    -0.002 C 
ATOM   4868  C31 YOP    22     -24.490  18.825   0.135  1.00  0.00    -0.040 A 
ATOM   4869  H12 YOP    22     -24.460  14.240  18.837  1.00  0.00     0.223 HD
ATOM   4870 XH16 YOP    22     -25.019  19.755   0.338  1.00  0.00     0.021 HD
ATOM   4871 ZH16 YOP    22     -24.892  19.781   0.697  1.00  0.00     0.021 HD
ATOM   4872  C1  ERG    23      -1.395 -30.731  15.267  1.00  0.00     0.017 C 
ATOM   4873  C2  ERG    23      -1.527 -30.606  16.774  1.00  0.00     0.033 C 
ATOM   4874  C3  ERG    23      -2.186 -29.270  17.242  1.00  0.00     0.122 C 
ATOM   4875  O3  ERG    23      -2.373 -29.184  18.652  1.00  0.00    -0.395 OA
ATOM   4876  C4  ERG    23      -3.583 -29.203  16.690  1.00  0.00     0.066 C 
ATOM   4877  C5  ERG    23      -3.559 -29.411  15.213  1.00  0.00    -0.069 C 
ATOM   4878  C6  ERG    23      -4.182 -28.548  14.412  1.00  0.00     0.004 C 
ATOM   4879  C7  ERG    23      -4.145 -28.632  13.081  1.00  0.00     0.004 C 
ATOM   4880  C8  ERG    23      -3.435 -29.529  12.400  1.00  0.00    -0.070 C 
ATOM   4881  C9  ERG    23      -2.608 -30.609  13.083  1.00  0.00     0.027 C 
ATOM   4882  C10 ERG    23      -2.778 -30.625  14.640  1.00  0.00    -0.013 C 
ATOM   4883  C11 ERG    23      -2.772 -31.978  12.342  1.00  0.00     0.011 C 
ATOM   4884  C12 ERG    23      -2.720 -31.867  10.797  1.00  0.00     0.011 C 
ATOM   4885  C13 ERG    23      -3.688 -30.786  10.250  1.00  0.00    -0.032 C 
ATOM   4886  C14 ERG    23      -3.294 -29.481  10.925  1.00  0.00     0.023 C 
ATOM   4887  C15 ERG    23      -3.901 -28.313  10.117  1.00  0.00     0.010 C 
ATOM   4888  C16 ERG    23      -3.981 -28.879   8.700  1.00  0.00     0.007 C 
ATOM   4889  C17 ERG    23      -3.576 -30.397   8.755  1.00  0.00     0.002 C 
ATOM   4890  C18 ERG    23      -5.157 -31.117  10.618  1.00  0.00     0.016 C 
ATOM   4891  C19 ERG    23      -3.593 -31.848  15.134  1.00  0.00     0.021 C 
ATOM   4892  C20 ERG    23      -4.330 -31.246   7.712  1.00  0.00     0.008 C 
ATOM   4893  C21 ERG    23      -3.846 -32.717   7.650  1.00  0.00     0.014 C 
ATOM   4894  C22 ERG    23      -4.151 -30.718   6.309  1.00  0.00    -0.026 C 
ATOM   4895  C23 ERG    23      -5.119 -30.176   5.572  1.00  0.00    -0.026 C 
ATOM   4896  C24 ERG    23      -4.892 -29.673   4.169  1.00  0.00     0.007 C 
ATOM   4897  C25 ERG    23      -5.730 -30.474   3.221  1.00  0.00    -0.015 C 
ATOM   4898  C26 ERG    23      -5.757 -29.829   1.846  1.00  0.00     0.010 C 
ATOM   4899  C27 ERG    23      -5.070 -31.834   3.113  1.00  0.00     0.010 C 
ATOM   4900  C28 ERG    23      -5.457 -28.334   4.139  1.00  0.00     0.014 C 
ATOM   4901  H3' ERG    23      -2.518 -30.089  18.945  1.00  0.00     0.210 HD
ATOM   4902  C1  ERG    24      24.112  10.908  16.591  1.00  0.00     0.017 C 
ATOM   4903  C2  ERG    24      25.049  10.856  17.808  1.00  0.00     0.033 C 
ATOM   4904  C3  ERG    24      26.451  10.342  17.424  1.00  0.00     0.122 C 
ATOM   4905  O3  ERG    24      27.298  10.262  18.566  1.00  0.00    -0.395 OA
ATOM   4906  C4  ERG    24      27.059  11.304  16.381  1.00  0.00     0.066 C 
ATOM   4907  C5  ERG    24      26.147  11.405  15.154  1.00  0.00    -0.069 C 
ATOM   4908  C6  ERG    24      26.538  11.108  13.891  1.00  0.00     0.004 C 
ATOM   4909  C7  ERG    24      25.702  11.040  12.823  1.00  0.00     0.004 C 
ATOM   4910  C8  ERG    24      24.365  11.212  12.884  1.00  0.00    -0.070 C 
ATOM   4911  C9  ERG    24      23.675  11.543  14.210  1.00  0.00     0.027 C 
ATOM   4912  C10 ERG    24      24.657  11.754  15.426  1.00  0.00    -0.013 C 
ATOM   4913  C11 ERG    24      22.563  12.636  14.079  1.00  0.00     0.011 C 
ATOM   4914  C12 ERG    24      21.641  12.459  12.855  1.00  0.00     0.011 C 
ATOM   4915  C13 ERG    24      22.461  12.271  11.562  1.00  0.00    -0.032 C 
ATOM   4916  C14 ERG    24      23.394  11.071  11.717  1.00  0.00     0.023 C 
ATOM   4917  C15 ERG    24      23.855  10.726  10.272  1.00  0.00     0.010 C 
ATOM   4918  C16 ERG    24      22.651  11.111   9.381  1.00  0.00     0.007 C 
ATOM   4919  C17 ERG    24      21.640  11.844  10.326  1.00  0.00     0.002 C 
ATOM   4920  C18 ERG    24      23.327  13.516  11.242  1.00  0.00     0.016 C 
ATOM   4921  C19 ERG    24      24.639  13.238  15.894  1.00  0.00     0.021 C 
ATOM   4922  C20 ERG    24      20.663  12.869   9.687  1.00  0.00     0.008 C 
ATOM   4923  C21 ERG    24      19.671  12.040   8.826  1.00  0.00     0.014 C 
ATOM   4924  C22 ERG    24      21.392  13.994   8.944  1.00  0.00    -0.026 C 
ATOM   4925  C23 ERG    24      21.882  13.941   7.692  1.00  0.00    -0.026 C 
ATOM   4926  C24 ERG    24      22.634  15.071   7.021  1.00  0.00     0.007 C 
ATOM   4927  C25 ERG    24      23.782  14.634   6.084  1.00  0.00    -0.015 C 
ATOM   4928  C26 ERG    24      24.818  15.769   5.921  1.00  0.00     0.010 C 
ATOM   4929  C27 ERG    24      24.526  13.402   6.626  1.00  0.00     0.010 C 
ATOM   4930  C28 ERG    24      21.658  16.009   6.289  1.00  0.00     0.014 C 
ATOM   4931  H3' ERG    24      27.358  11.166  18.875  1.00  0.00     0.210 HD
ATOM   4932  C1  ERG    25     -26.184 -12.708  15.473  1.00  0.00     0.017 C 
ATOM   4933  C2  ERG    25     -26.567 -12.104  16.842  1.00  0.00     0.033 C 
ATOM   4934  C3  ERG    25     -27.914 -12.663  17.343  1.00  0.00     0.122 C 
ATOM   4935  O3  ERG    25     -28.174 -12.220  18.666  1.00  0.00    -0.395 OA
ATOM   4936  C4  ERG    25     -27.885 -14.189  17.402  1.00  0.00     0.066 C 
ATOM   4937  C5  ERG    25     -27.565 -14.745  16.048  1.00  0.00    -0.069 A 
ATOM   4938  C6  ERG    25     -28.402 -15.562  15.375  1.00  0.00     0.004 A 
ATOM   4939  C7  ERG    25     -28.146 -16.020  14.135  1.00  0.00     0.004 A 
ATOM   4940  C8  ERG    25     -27.046 -15.637  13.438  1.00  0.00    -0.070 A 
ATOM   4941  C9  ERG    25     -25.929 -14.743  14.000  1.00  0.00     0.027 A 
ATOM   4942  C10 ERG    25     -26.219 -14.258  15.449  1.00  0.00    -0.013 A 
ATOM   4943  C11 ERG    25     -24.455 -15.264  13.778  1.00  0.00     0.011 C 
ATOM   4944  C12 ERG    25     -24.152 -15.506  12.272  1.00  0.00     0.011 C 
ATOM   4945  C13 ERG    25     -25.309 -16.253  11.669  1.00  0.00    -0.033 C 
ATOM   4946  C14 ERG    25     -26.772 -15.886  12.000  1.00  0.00     0.023 C 
ATOM   4947  C15 ERG    25     -27.778 -16.769  11.213  1.00  0.00     0.010 C 
ATOM   4948  C16 ERG    25     -26.962 -16.968   9.925  1.00  0.00     0.006 C 
ATOM   4949  C17 ERG    25     -25.419 -16.579  10.133  1.00  0.00    -0.002 C 
ATOM   4950  C18 ERG    25     -25.007 -17.324  12.533  1.00  0.00     0.016 C 
ATOM   4951  C19 ERG    25     -25.080 -14.795  16.355  1.00  0.00     0.021 C 
ATOM   4952  C20 ERG    25     -24.335 -17.350   9.245  1.00  0.00    -0.009 C 
ATOM   4953  C21 ERG    25     -22.886 -17.338   9.729  1.00  0.00     0.011 C 
ATOM   4954  C22 ERG    25     -24.387 -16.990   7.692  1.00  0.00    -0.001 C 
ATOM   4955  C23 ERG    25     -24.687 -17.988   6.831  1.00  0.00    -0.000 C 
ATOM   4956  C24 ERG    25     -25.053 -18.874   5.279  1.00  0.00    -0.002 C 
ATOM   4957  C25 ERG    25     -24.453 -18.621   4.203  1.00  0.00    -0.018 C 
ATOM   4958  C26 ERG    25     -24.143 -17.150   4.317  1.00  0.00     0.010 C 
ATOM   4959  C27 ERG    25     -23.601 -19.680   4.739  1.00  0.00     0.010 C 
ATOM   4960  C28 ERG    25     -25.761 -20.681   4.690  1.00  0.00     0.000 C 
ATOM   4961  H3' ERG    25     -27.320 -12.256  19.105  1.00  0.00     0.210 HD
ATOM   4962  C1  ERG    26      25.468 -18.876  15.641  1.00  0.00     0.017 C 
ATOM   4963  C2  ERG    26      24.901 -17.852  16.610  1.00  0.00     0.033 C 
ATOM   4964  C3  ERG    26      25.956 -17.509  17.637  1.00  0.00     0.122 C 
ATOM   4965  O3  ERG    26      25.408 -16.517  18.472  1.00  0.00    -0.395 OA
ATOM   4966  C4  ERG    26      27.253 -16.990  16.978  1.00  0.00     0.066 C 
ATOM   4967  C5  ERG    26      27.764 -18.054  16.031  1.00  0.00    -0.069 A 
ATOM   4968  C6  ERG    26      28.938 -18.701  16.190  1.00  0.00     0.004 A 
ATOM   4969  C7  ERG    26      29.357 -19.775  15.477  1.00  0.00     0.004 A 
ATOM   4970  C8  ERG    26      28.616 -20.352  14.523  1.00  0.00    -0.070 A 
ATOM   4971  C9  ERG    26      27.269 -19.694  14.168  1.00  0.00     0.027 A 
ATOM   4972  C10 ERG    26      26.779 -18.458  14.947  1.00  0.00    -0.013 A 
ATOM   4973  C11 ERG    26      27.192 -19.507  12.690  1.00  0.00     0.011 C 
ATOM   4974  C12 ERG    26      27.353 -20.928  12.214  1.00  0.00     0.011 C 
ATOM   4975  C13 ERG    26      28.853 -21.545  12.276  1.00  0.00    -0.032 C 
ATOM   4976  C14 ERG    26      28.917 -21.675  13.778  1.00  0.00     0.023 C 
ATOM   4977  C15 ERG    26      30.160 -22.558  14.058  1.00  0.00     0.010 C 
ATOM   4978  C16 ERG    26      30.273 -23.521  12.855  1.00  0.00     0.007 C 
ATOM   4979  C17 ERG    26      29.201 -23.072  11.821  1.00  0.00     0.002 C 
ATOM   4980  C18 ERG    26      30.096 -20.658  11.882  1.00  0.00     0.016 C 
ATOM   4981  C19 ERG    26      26.550 -17.231  13.992  1.00  0.00     0.021 C 
ATOM   4982  C20 ERG    26      29.596 -23.600  10.353  1.00  0.00     0.008 C 
ATOM   4983  C21 ERG    26      29.481 -25.101  10.089  1.00  0.00     0.014 C 
ATOM   4984  C22 ERG    26      30.929 -23.095   9.755  1.00  0.00    -0.026 C 
ATOM   4985  C23 ERG    26      31.015 -22.291   8.690  1.00  0.00    -0.026 C 
ATOM   4986  C24 ERG    26      32.208 -21.662   7.959  1.00  0.00     0.007 C 
ATOM   4987  C25 ERG    26      32.028 -21.459   6.429  1.00  0.00    -0.015 C 
ATOM   4988  C26 ERG    26      33.188 -20.676   5.790  1.00  0.00     0.010 C 
ATOM   4989  C27 ERG    26      31.902 -22.859   5.791  1.00  0.00     0.010 C 
ATOM   4990  C28 ERG    26      32.571 -20.264   8.557  1.00  0.00     0.014 C 
ATOM   4991  H3' ERG    26      26.147 -16.259  19.020  1.00  0.00     0.210 HD
ATOM   4992  C1  ERG    27       4.600  28.095  15.789  1.00  0.00     0.017 C 
ATOM   4993  C2  ERG    27       4.306  29.437  16.516  1.00  0.00     0.033 C 
ATOM   4994  C3  ERG    27       5.572  30.175  16.831  1.00  0.00     0.122 C 
ATOM   4995  O3  ERG    27       5.395  31.380  17.573  1.00  0.00    -0.395 OA
ATOM   4996  C4  ERG    27       6.780  30.298  15.966  1.00  0.00     0.066 C 
ATOM   4997  C5  ERG    27       6.950  29.024  15.292  1.00  0.00    -0.069 C 
ATOM   4998  C6  ERG    27       8.147  28.478  15.136  1.00  0.00     0.004 C 
ATOM   4999  C7  ERG    27       8.266  27.447  14.369  1.00  0.00     0.004 C 
ATOM   5000  C8  ERG    27       7.305  26.808  13.795  1.00  0.00    -0.070 C 
ATOM   5001  C9  ERG    27       5.900  27.151  14.019  1.00  0.00     0.027 C 
ATOM   5002  C10 ERG    27       5.653  28.414  14.778  1.00  0.00    -0.013 C 
ATOM   5003  C11 ERG    27       5.005  27.066  12.796  1.00  0.00     0.011 C 
ATOM   5004  C12 ERG    27       5.187  25.950  11.846  1.00  0.00     0.011 C 
ATOM   5005  C13 ERG    27       6.720  25.740  11.732  1.00  0.00    -0.033 C 
ATOM   5006  C14 ERG    27       7.521  25.680  13.067  1.00  0.00     0.023 C 
ATOM   5007  C15 ERG    27       8.840  24.966  12.782  1.00  0.00     0.010 C 
ATOM   5008  C16 ERG    27       8.803  24.659  11.244  1.00  0.00     0.006 C 
ATOM   5009  C17 ERG    27       7.280  24.710  10.838  1.00  0.00    -0.001 C 
ATOM   5010  C18 ERG    27       7.339  26.758  10.802  1.00  0.00     0.016 C 
ATOM   5011  C19 ERG    27       5.014  29.479  13.908  1.00  0.00     0.021 C 
ATOM   5012  C20 ERG    27       6.355  23.992   9.464  1.00  0.00     0.011 C 
ATOM   5013  C21 ERG    27       4.849  23.524   9.079  1.00  0.00     0.015 C 
ATOM   5014  C22 ERG    27       6.738  22.758   8.757  1.00  0.00    -0.022 C 
ATOM   5015  C23 ERG    27       6.833  21.639   7.941  1.00  0.00    -0.004 C 
ATOM   5016  C24 ERG    27       8.622  20.466   7.909  1.00  0.00     0.000 C 
ATOM   5017  C25 ERG    27       9.548  20.260   6.588  1.00  0.00     0.000 C 
ATOM   5018  C26 ERG    27       7.795  20.328   5.890  1.00  0.00     0.000 C 
ATOM   5019  C27 ERG    27      11.643  21.416   5.896  1.00  0.00    -0.025 C 
ATOM   5020  C28 ERG    27      10.310  20.296   8.557  1.00  0.00     0.000 C 
ATOM   5021  H3' ERG    27       5.903  31.256  18.387  1.00  0.00     0.210 HD
ATOM   5022 AH27 ERG    27      11.334  22.345   5.135  1.00  0.00     0.003 HD
ATOM   5023 CH27 ERG    27      11.640  22.615   5.647  1.00  0.00     0.021 HD
ATOM   5024  C1  ERG    28     -23.970  25.786  15.804  1.00  0.00     0.017 C 
ATOM   5025  C2  ERG    28     -23.415  26.081  17.155  1.00  0.00     0.033 C 
ATOM   5026  C3  ERG    28     -21.988  25.690  17.354  1.00  0.00     0.122 C 
ATOM   5027  O3  ERG    28     -21.823  25.928  18.744  1.00  0.00    -0.395 OA
ATOM   5028  C4  ERG    28     -21.084  26.392  16.265  1.00  0.00     0.066 C 
ATOM   5029  C5  ERG    28     -21.661  26.105  14.920  1.00  0.00    -0.069 A 
ATOM   5030  C6  ERG    28     -20.969  25.462  13.989  1.00  0.00     0.004 A 
ATOM   5031  C7  ERG    28     -21.454  25.042  12.820  1.00  0.00     0.004 A 
ATOM   5032  C8  ERG    28     -22.734  25.221  12.471  1.00  0.00    -0.070 A 
ATOM   5033  C9  ERG    28     -23.707  25.939  13.353  1.00  0.00     0.027 A 
ATOM   5034  C10 ERG    28     -23.129  26.462  14.692  1.00  0.00    -0.013 A 
ATOM   5035  C11 ERG    28     -24.436  26.973  12.473  1.00  0.00     0.011 C 
ATOM   5036  C12 ERG    28     -25.071  26.459  11.172  1.00  0.00     0.011 C 
ATOM   5037  C13 ERG    28     -24.049  25.678  10.348  1.00  0.00    -0.032 C 
ATOM   5038  C14 ERG    28     -23.436  24.686  11.281  1.00  0.00     0.023 C 
ATOM   5039  C15 ERG    28     -22.676  23.735  10.387  1.00  0.00     0.010 C 
ATOM   5040  C16 ERG    28     -23.537  23.678   9.099  1.00  0.00     0.007 C 
ATOM   5041  C17 ERG    28     -24.587  24.811   9.207  1.00  0.00     0.002 C 
ATOM   5042  C18 ERG    28     -22.873  26.502   9.795  1.00  0.00     0.016 C 
ATOM   5043  C19 ERG    28     -23.164  28.004  14.725  1.00  0.00     0.021 C 
ATOM   5044  C20 ERG    28     -24.895  25.447   7.841  1.00  0.00     0.008 C 
ATOM   5045  C21 ERG    28     -25.948  26.554   7.999  1.00  0.00     0.014 C 
ATOM   5046  C22 ERG    28     -25.509  24.389   6.954  1.00  0.00    -0.026 C 
ATOM   5047  C23 ERG    28     -24.992  23.912   5.811  1.00  0.00    -0.026 C 
ATOM   5048  C24 ERG    28     -25.611  22.843   4.944  1.00  0.00     0.007 C 
ATOM   5049  C25 ERG    28     -25.567  23.109   3.454  1.00  0.00    -0.015 C 
ATOM   5050  C26 ERG    28     -24.127  23.284   2.887  1.00  0.00     0.010 C 
ATOM   5051  C27 ERG    28     -26.352  21.906   2.900  1.00  0.00     0.010 C 
ATOM   5052  C28 ERG    28     -24.788  21.587   5.188  1.00  0.00     0.014 C 
ATOM   5053  H3' ERG    28     -21.846  26.910  18.833  1.00  0.00     0.210 HD
ATOM   5054  P   POP    29      15.897 -29.774  20.154  1.00  0.00     0.408 P 
ATOM   5055  C1  POP    29      14.735 -30.842  18.040  1.00  0.00     0.216 C 
ATOM   5056  C2  POP    29      15.061 -31.973  17.046  1.00  0.00     0.180 C 
ATOM   5057  O2  POP    29      15.973 -32.868  22.986  1.00  0.00    -0.390 OA
ATOM   5058  C3  POP    29      13.790 -32.422  16.288  1.00  0.00     0.213 C 
ATOM   5059  O3  POP    29      17.087 -31.730  25.463  1.00  0.00    -0.390 OA
ATOM   5060  O4  POP    29      14.551 -31.392  26.720  1.00  0.00    -0.390 OA
ATOM   5061  O5  POP    29      12.236 -31.281  25.071  1.00  0.00    -0.390 OA
ATOM   5062  O6  POP    29      12.533 -30.511  22.365  1.00  0.00    -0.390 OA
ATOM   5063  C11 POP    29      14.986 -30.672  22.547  1.00  0.00     0.197 C 
ATOM   5064  O11 POP    29      15.910 -30.418  18.719  1.00  0.00    -0.287 OA
ATOM   5065  C12 POP    29      16.068 -31.469  23.266  1.00  0.00     0.181 C 
ATOM   5066  O12 POP    29      15.122 -30.857  21.130  1.00  0.00    -0.279 OA
ATOM   5067  C13 POP    29      15.984 -31.172  24.757  1.00  0.00     0.180 C 
ATOM   5068  O13 POP    29      17.306 -29.550  20.581  1.00  0.00    -0.624 OA
ATOM   5069  C14 POP    29      14.635 -31.622  25.305  1.00  0.00     0.180 C 
ATOM   5070  O14 POP    29      15.091 -28.537  20.106  1.00  0.00    -0.624 OA
ATOM   5071  C15 POP    29      13.518 -30.900  24.558  1.00  0.00     0.180 C 
ATOM   5072  C16 POP    29      13.615 -31.141  23.054  1.00  0.00     0.181 C 
ATOM   5073  C21 POP    29      16.833 -32.404  15.686  1.00  0.00     0.259 C 
ATOM   5074  O21 POP    29      16.029 -31.471  16.110  1.00  0.00    -0.312 OA
ATOM   5075  C22 POP    29      17.988 -31.705  14.935  1.00  0.00     0.111 C 
ATOM   5076  O22 POP    29      16.741 -33.588  15.959  1.00  0.00    -0.265 OA
ATOM   5077  C23 POP    29      17.889 -31.547  13.408  1.00  0.00     0.010 C 
ATOM   5078  C24 POP    29      16.615 -30.964  12.797  1.00  0.00     0.000 C 
ATOM   5079  C25 POP    29      16.718 -30.964  11.268  1.00  0.00     0.000 C 
ATOM   5080  C26 POP    29      15.863 -29.875  10.620  1.00  0.00     0.000 C 
ATOM   5081  C27 POP    29      15.924 -29.967   9.064  1.00  0.00     0.004 C 
ATOM   5082  C28 POP    29      17.104 -29.768   8.175  1.00  0.00     0.027 C 
ATOM   5083  C29 POP    29      16.690 -29.564   6.733  1.00  0.00    -0.031 C 
ATOM   5084  C31 POP    29      12.890 -34.246  15.204  1.00  0.00     0.258 C 
ATOM   5085  O31 POP    29      13.950 -33.761  15.807  1.00  0.00    -0.319 OA
ATOM   5086  C32 POP    29      13.160 -35.659  14.816  1.00  0.00     0.111 C 
ATOM   5087  O32 POP    29      11.872 -33.632  14.939  1.00  0.00    -0.265 OA
ATOM   5088  C33 POP    29      12.984 -35.723  13.356  1.00  0.00     0.010 C 
ATOM   5089  C34 POP    29      14.098 -34.896  12.924  1.00  0.00     0.001 C 
ATOM   5090  C35 POP    29      14.194 -35.400  11.615  1.00  0.00     0.000 C 
ATOM   5091  C36 POP    29      13.606 -34.244  11.056  1.00  0.00     0.005 C 
ATOM   5092  C37 POP    29      13.885 -34.346   9.885  1.00  0.00    -0.006 C 
ATOM   5093  C38 POP    29      12.404 -33.730   9.071  1.00  0.00     0.000 C 
ATOM   5094  C39 POP    29      11.676 -32.190   8.342  1.00  0.00     0.000 C 
ATOM   5095  C21 POP    29      17.146 -30.206   5.641  1.00  0.00    -0.031 C 
ATOM   5096  C21 POP    29      18.188 -31.298   5.584  1.00  0.00     0.027 C 
ATOM   5097  C21 POP    29      17.892 -32.426   4.582  1.00  0.00     0.004 C 
ATOM   5098  C21 POP    29      16.607 -33.162   4.790  1.00  0.00     0.000 C 
ATOM   5099  C21 POP    29      16.500 -34.409   3.931  1.00  0.00     0.000 C 
ATOM   5100  C21 POP    29      15.258 -35.063   4.358  1.00  0.00     0.000 C 
ATOM   5101  C21 POP    29      13.900 -35.038   3.638  1.00  0.00    -0.000 C 
ATOM   5102  C21 POP    29      12.754 -36.077   4.038  1.00  0.00    -0.005 C 
ATOM   5103  C21 POP    29      11.463 -35.724   3.331  1.00  0.00     0.005 C 
ATOM   5104  C31 POP    29      10.988 -31.720   6.856  1.00  0.00     0.000 C 
ATOM   5105  C31 POP    29      11.410 -30.397   5.939  1.00  0.00     0.000 C 
ATOM   5106  C31 POP    29      10.758 -30.368   4.531  1.00  0.00     0.000 C 
ATOM   5107  C31 POP    29      11.238 -31.337   3.387  1.00  0.00     0.000 C 
ATOM   5108  C31 POP    29      12.699 -31.224   2.880  1.00  0.00    -0.000 C 
ATOM   5109  C31 POP    29      13.051 -32.136   1.712  1.00  0.00    -0.005 C 
ATOM   5110  C31 POP    29      14.579 -32.210   1.536  1.00  0.00     0.005 C 
ATOM   5111  HO2 POP    29      15.091 -33.038  22.652  1.00  0.00     0.210 HD
ATOM   5112  HO3 POP    29      17.522 -31.046  25.975  1.00  0.00     0.210 HD
ATOM   5113  HO4 POP    29      14.153 -30.540  26.860  1.00  0.00     0.210 HD
ATOM   5114  HO5 POP    29      11.668 -30.522  25.237  1.00  0.00     0.210 HD
ATOM   5115  HO6 POP    29      12.878 -29.703  21.974  1.00  0.00     0.210 HD
ATOM   5116  H7X POP    29      15.170 -34.252  10.229  1.00  0.00     0.000 HD
ATOM   5117  C1  ERG    30     -20.411 -29.816  15.337  1.00  0.00     0.017 C 
ATOM   5118  C2  ERG    30     -20.180 -29.740  16.855  1.00  0.00     0.033 C 
ATOM   5119  C3  ERG    30     -19.647 -28.352  17.264  1.00  0.00     0.122 C 
ATOM   5120  O3  ERG    30     -19.473 -28.249  18.670  1.00  0.00    -0.395 OA
ATOM   5121  C4  ERG    30     -20.635 -27.270  16.812  1.00  0.00     0.066 C 
ATOM   5122  C5  ERG    30     -20.851 -27.362  15.312  1.00  0.00    -0.069 A 
ATOM   5123  C6  ERG    30     -20.564 -26.361  14.453  1.00  0.00     0.004 A 
ATOM   5124  C7  ERG    30     -20.673 -26.457  13.103  1.00  0.00     0.004 A 
ATOM   5125  C8  ERG    30     -21.035 -27.591  12.457  1.00  0.00    -0.070 A 
ATOM   5126  C9  ERG    30     -21.386 -28.868  13.227  1.00  0.00     0.027 A 
ATOM   5127  C10 ERG    30     -21.356 -28.725  14.783  1.00  0.00    -0.013 A 
ATOM   5128  C11 ERG    30     -22.642 -29.630  12.688  1.00  0.00     0.011 C 
ATOM   5129  C12 ERG    30     -22.629 -29.787  11.162  1.00  0.00     0.011 C 
ATOM   5130  C13 ERG    30     -22.416 -28.411  10.477  1.00  0.00    -0.032 C 
ATOM   5131  C14 ERG    30     -21.072 -27.850  10.959  1.00  0.00     0.023 C 
ATOM   5132  C15 ERG    30     -20.636 -26.805   9.895  1.00  0.00     0.010 C 
ATOM   5133  C16 ERG    30     -21.416 -27.179   8.620  1.00  0.00     0.007 C 
ATOM   5134  C17 ERG    30     -22.288 -28.425   8.934  1.00  0.00     0.002 C 
ATOM   5135  C18 ERG    30     -23.483 -27.350  10.873  1.00  0.00     0.016 C 
ATOM   5136  C19 ERG    30     -22.819 -28.836  15.313  1.00  0.00     0.021 C 
ATOM   5137  C20 ERG    30     -23.570 -28.390   8.081  1.00  0.00     0.008 C 
ATOM   5138  C21 ERG    30     -24.523 -29.557   8.412  1.00  0.00     0.014 C 
ATOM   5139  C22 ERG    30     -23.328 -28.438   6.579  1.00  0.00    -0.026 C 
ATOM   5140  C23 ERG    30     -23.404 -27.360   5.778  1.00  0.00    -0.026 C 
ATOM   5141  C24 ERG    30     -23.186 -27.342   4.282  1.00  0.00     0.007 C 
ATOM   5142  C25 ERG    30     -24.302 -26.607   3.528  1.00  0.00    -0.015 C 
ATOM   5143  C26 ERG    30     -24.064 -26.700   2.006  1.00  0.00     0.010 C 
ATOM   5144  C27 ERG    30     -25.665 -27.248   3.866  1.00  0.00     0.010 C 
ATOM   5145  C28 ERG    30     -21.793 -26.705   4.032  1.00  0.00     0.014 C 
ATOM   5146  H3' ERG    30     -18.952 -29.024  18.920  1.00  0.00     0.210 HD
ATOM   5147  N   POP    31      22.297  27.679  21.361  1.00  0.00    -0.063 N 
ATOM   5148  P   POP    31      22.056  25.191  17.012  1.00  0.00     0.408 P 
ATOM   5149  C1  POP    31      24.493  26.114  16.762  1.00  0.00     0.216 C 
ATOM   5150  C2  POP    31      25.402  26.881  15.743  1.00  0.00     0.180 C 
ATOM   5151  C3  POP    31      26.102  26.000  14.763  1.00  0.00     0.213 C 
ATOM   5152  C11 POP    31      22.147  26.547  19.172  1.00  0.00     0.225 C 
ATOM   5153  O11 POP    31      23.113  26.227  16.457  1.00  0.00    -0.287 OA
ATOM   5154  C12 POP    31      22.604  26.499  20.608  1.00  0.00     0.307 C 
ATOM   5155  O12 POP    31      22.245  25.240  18.596  1.00  0.00    -0.287 OA
ATOM   5156  C13 POP    31      24.033  26.474  20.494  1.00  0.00     0.206 C 
ATOM   5157  O13 POP    31      20.715  25.763  16.777  1.00  0.00    -0.624 OA
ATOM   5158  O13 POP    31      24.720  27.411  20.989  1.00  0.00    -0.646 OA
ATOM   5159  O13 POP    31      24.456  25.387  20.027  1.00  0.00    -0.646 OA
ATOM   5160  O14 POP    31      22.410  23.847  16.512  1.00  0.00    -0.624 OA
ATOM   5161  C21 POP    31      25.185  29.071  14.872  1.00  0.00     0.259 C 
ATOM   5162  O21 POP    31      24.660  27.869  15.009  1.00  0.00    -0.312 OA
ATOM   5163  C22 POP    31      24.226  29.904  14.063  1.00  0.00     0.111 C 
ATOM   5164  O22 POP    31      26.250  29.452  15.318  1.00  0.00    -0.265 OA
ATOM   5165  C23 POP    31      23.909  29.164  12.750  1.00  0.00     0.010 C 
ATOM   5166  C24 POP    31      22.944  29.973  11.888  1.00  0.00     0.000 C 
ATOM   5167  C25 POP    31      22.245  29.157  10.782  1.00  0.00     0.000 C 
ATOM   5168  C26 POP    31      22.047  29.964   9.483  1.00  0.00     0.000 C 
ATOM   5169  C27 POP    31      21.150  29.280   8.425  1.00  0.00     0.004 C 
ATOM   5170  C28 POP    31      21.759  28.143   7.559  1.00  0.00     0.027 C 
ATOM   5171  C29 POP    31      22.906  28.508   6.650  1.00  0.00    -0.031 C 
ATOM   5172  C31 POP    31      25.495  24.791  12.925  1.00  0.00     0.258 C 
ATOM   5173  O31 POP    31      25.200  25.063  14.167  1.00  0.00    -0.319 OA
ATOM   5174  C32 POP    31      24.289  24.215  12.233  1.00  0.00     0.111 C 
ATOM   5175  O32 POP    31      26.540  25.049  12.357  1.00  0.00    -0.265 OA
ATOM   5176  C33 POP    31      22.971  24.793  12.770  1.00  0.00     0.010 C 
ATOM   5177  C34 POP    31      21.870  24.525  11.758  1.00  0.00     0.000 C 
ATOM   5178  C35 POP    31      20.540  25.011  12.310  1.00  0.00     0.000 C 
ATOM   5179  C36 POP    31      19.395  24.925  11.314  1.00  0.00     0.000 C 
ATOM   5180  C37 POP    31      19.488  26.064  10.297  1.00  0.00     0.000 C 
ATOM   5181  C38 POP    31      18.212  26.191   9.469  1.00  0.00     0.000 C 
ATOM   5182  C39 POP    31      17.894  24.972   8.598  1.00  0.00     0.000 C 
ATOM   5183  C21 POP    31      24.191  28.118   6.754  1.00  0.00    -0.031 C 
ATOM   5184  C21 POP    31      24.793  27.223   7.810  1.00  0.00     0.027 C 
ATOM   5185  C21 POP    31      26.019  27.814   8.557  1.00  0.00     0.004 C 
ATOM   5186  C21 POP    31      27.175  28.433   7.731  1.00  0.00     0.000 C 
ATOM   5187  C21 POP    31      28.137  27.404   7.096  1.00  0.00     0.000 C 
ATOM   5188  C21 POP    31      27.636  26.647   5.846  1.00  0.00     0.000 C 
ATOM   5189  C21 POP    31      27.972  27.256   4.461  1.00  0.00    -0.000 C 
ATOM   5190  C21 POP    31      27.171  26.579   3.323  1.00  0.00    -0.005 C 
ATOM   5191  C21 POP    31      27.885  26.397   1.975  1.00  0.00     0.005 C 
ATOM   5192  C31 POP    31      18.407  25.124   7.161  1.00  0.00     0.000 C 
ATOM   5193  C31 POP    31      19.806  24.548   6.939  1.00  0.00     0.000 C 
ATOM   5194  C31 POP    31      20.358  24.888   5.557  1.00  0.00     0.000 C 
ATOM   5195  C31 POP    31      21.629  24.096   5.247  1.00  0.00     0.000 C 
ATOM   5196  C31 POP    31      22.012  24.166   3.779  1.00  0.00    -0.000 C 
ATOM   5197  C31 POP    31      21.731  25.559   3.236  1.00  0.00    -0.005 C 
ATOM   5198  C31 POP    31      21.489  25.461   1.776  1.00  0.00     0.005 C 
ATOM   5199  HN1 POP    31      21.275  27.750  21.464  1.00  0.00     0.275 HD
ATOM   5200  HN2 POP    31      22.736  27.661  22.304  1.00  0.00     0.275 HD
ATOM   5201  HN3 POP    31      22.736  28.505  20.882  1.00  0.00     0.275 HD
ATOM   5202  C1  ERG    32     -36.214   2.744  15.566  1.00  0.00     0.017 C 
ATOM   5203  C2  ERG    32     -35.653   2.837  16.998  1.00  0.00     0.033 C 
ATOM   5204  C3  ERG    32     -35.033   4.206  17.308  1.00  0.00     0.122 C 
ATOM   5205  O3  ERG    32     -34.621   4.213  18.669  1.00  0.00    -0.395 OA
ATOM   5206  C4  ERG    32     -36.063   5.325  17.100  1.00  0.00     0.066 C 
ATOM   5207  C5  ERG    32     -36.612   5.288  15.695  1.00  0.00    -0.069 A 
ATOM   5208  C6  ERG    32     -36.506   6.365  14.889  1.00  0.00     0.004 A 
ATOM   5209  C7  ERG    32     -36.770   6.357  13.570  1.00  0.00     0.004 A 
ATOM   5210  C8  ERG    32     -37.134   5.256  12.906  1.00  0.00    -0.070 A 
ATOM   5211  C9  ERG    32     -37.353   3.914  13.630  1.00  0.00     0.027 A 
ATOM   5212  C10 ERG    32     -37.137   3.924  15.172  1.00  0.00    -0.013 A 
ATOM   5213  C11 ERG    32     -38.710   3.380  13.191  1.00  0.00     0.011 C 
ATOM   5214  C12 ERG    32     -38.789   3.375  11.668  1.00  0.00     0.011 C 
ATOM   5215  C13 ERG    32     -38.602   4.761  10.975  1.00  0.00    -0.032 C 
ATOM   5216  C14 ERG    32     -37.228   5.160  11.410  1.00  0.00     0.023 C 
ATOM   5217  C15 ERG    32     -36.712   6.236  10.410  1.00  0.00     0.010 C 
ATOM   5218  C16 ERG    32     -37.470   6.017   9.117  1.00  0.00     0.007 C 
ATOM   5219  C17 ERG    32     -38.338   4.811   9.446  1.00  0.00     0.002 C 
ATOM   5220  C18 ERG    32     -39.643   5.861  11.376  1.00  0.00     0.016 C 
ATOM   5221  C19 ERG    32     -38.510   3.709  15.865  1.00  0.00     0.021 C 
ATOM   5222  C20 ERG    32     -39.435   4.772   8.468  1.00  0.00     0.008 C 
ATOM   5223  C21 ERG    32     -39.643   3.320   8.288  1.00  0.00     0.014 C 
ATOM   5224  C22 ERG    32     -39.186   5.299   7.106  1.00  0.00    -0.026 C 
ATOM   5225  C23 ERG    32     -39.980   6.179   6.505  1.00  0.00    -0.026 C 
ATOM   5226  C24 ERG    32     -39.774   6.756   5.132  1.00  0.00     0.007 C 
ATOM   5227  C25 ERG    32     -39.435   5.987   3.835  1.00  0.00    -0.015 C 
ATOM   5228  C26 ERG    32     -38.037   5.497   3.719  1.00  0.00     0.010 C 
ATOM   5229  C27 ERG    32     -40.177   4.749   3.703  1.00  0.00     0.010 C 
ATOM   5230  C28 ERG    32     -41.019   7.626   4.797  1.00  0.00     0.014 C 
ATOM   5231  H3' ERG    32     -35.384   3.853  19.111  1.00  0.00     0.210 HD
ATOM   5232  N   DYP    33     -33.389  14.198  21.670  1.00  0.00    -0.077 N 
ATOM   5233  P   DYP    33     -33.993  15.200  16.745  1.00  0.00     0.408 P 
ATOM   5234  C1  DYP    33     -31.468  16.235  16.406  1.00  0.00     0.216 C 
ATOM   5235  C2  DYP    33     -30.402  16.502  15.281  1.00  0.00     0.180 C 
ATOM   5236  C3  DYP    33     -29.841  15.194  14.588  1.00  0.00     0.213 C 
ATOM   5237  C11 DYP    33     -34.049  13.777  19.434  1.00  0.00     0.209 C 
ATOM   5238  O11 DYP    33     -32.835  16.101  16.062  1.00  0.00    -0.287 OA
ATOM   5239  C12 DYP    33     -33.251  13.227  20.709  1.00  0.00     0.262 C 
ATOM   5240  O12 DYP    33     -33.545  14.768  18.381  1.00  0.00    -0.288 OA
ATOM   5241  C13 DYP    33     -32.632  13.611  22.766  1.00  0.00     0.271 C 
ATOM   5242  O13 DYP    33     -35.275  15.912  16.778  1.00  0.00    -0.624 OA
ATOM   5243  C14 DYP    33     -34.863  14.262  21.636  1.00  0.00     0.271 C 
ATOM   5244  O14 DYP    33     -33.923  14.118  15.725  1.00  0.00    -0.624 OA
ATOM   5245  C15 DYP    33     -32.806  15.495  21.194  1.00  0.00     0.271 C 
ATOM   5246  C21 DYP    33     -31.107  18.587  14.676  1.00  0.00     0.259 C 
ATOM   5247  O21 DYP    33     -30.970  17.346  14.294  1.00  0.00    -0.312 OA
ATOM   5248  C22 DYP    33     -32.048  19.270  13.697  1.00  0.00     0.111 C 
ATOM   5249  O22 DYP    33     -30.507  19.148  15.576  1.00  0.00    -0.265 OA
ATOM   5250  C23 DYP    33     -31.184  19.744  12.509  1.00  0.00     0.010 C 
ATOM   5251  C24 DYP    33     -31.920  20.488  11.389  1.00  0.00     0.000 C 
ATOM   5252  C25 DYP    33     -32.750  19.587  10.465  1.00  0.00     0.000 C 
ATOM   5253  C26 DYP    33     -32.007  18.512   9.636  1.00  0.00     0.000 C 
ATOM   5254  C27 DYP    33     -31.099  18.925   8.447  1.00  0.00     0.004 C 
ATOM   5255  C28 DYP    33     -30.926  17.731   7.471  1.00  0.00     0.027 C 
ATOM   5256  C29 DYP    33     -29.823  17.878   6.455  1.00  0.00    -0.031 C 
ATOM   5257  C31 DYP    33     -30.747  14.741  12.425  1.00  0.00     0.258 C 
ATOM   5258  O31 DYP    33     -30.788  14.498  13.740  1.00  0.00    -0.319 OA
ATOM   5259  C32 DYP    33     -31.721  13.803  11.698  1.00  0.00     0.111 C 
ATOM   5260  O32 DYP    33     -29.960  15.484  11.868  1.00  0.00    -0.265 OA
ATOM   5261  C33 DYP    33     -32.130  14.376  10.314  1.00  0.00     0.010 C 
ATOM   5262  C34 DYP    33     -33.198  13.561   9.562  1.00  0.00     0.000 C 
ATOM   5263  C35 DYP    33     -33.432  14.060   8.118  1.00  0.00     0.000 C 
ATOM   5264  C36 DYP    33     -34.568  15.097   7.968  1.00  0.00     0.000 C 
ATOM   5265  C37 DYP    33     -35.001  15.424   6.524  1.00  0.00     0.004 C 
ATOM   5266  C38 DYP    33     -35.888  16.690   6.451  1.00  0.00     0.027 C 
ATOM   5267  C39 DYP    33     -35.070  17.967   6.499  1.00  0.00    -0.031 C 
ATOM   5268  C21 DYP    33     -29.871  17.555   5.142  1.00  0.00    -0.031 C 
ATOM   5269  C21 DYP    33     -31.048  16.967   4.368  1.00  0.00     0.027 C 
ATOM   5270  C21 DYP    33     -30.743  15.829   3.357  1.00  0.00     0.004 C 
ATOM   5271  C21 DYP    33     -32.009  15.180   2.746  1.00  0.00     0.000 C 
ATOM   5272  C21 DYP    33     -32.681  15.959   1.601  1.00  0.00    -0.000 C 
ATOM   5273  C21 DYP    33     -33.571  15.060   0.713  1.00  0.00    -0.005 C 
ATOM   5274  C21 DYP    33     -34.950  14.697   1.284  1.00  0.00     0.005 C 
ATOM   5275  C31 DYP    33     -35.156  18.982   5.623  1.00  0.00    -0.031 C 
ATOM   5276  C31 DYP    33     -36.070  19.024   4.460  1.00  0.00     0.027 C 
ATOM   5277  C31 DYP    33     -35.515  18.079   3.426  1.00  0.00     0.004 C 
ATOM   5278  C31 DYP    33     -36.272  18.353   2.225  1.00  0.00     0.000 C 
ATOM   5279  C31 DYP    33     -36.060  19.728   1.447  1.00  0.00    -0.000 C 
ATOM   5280  C31 DYP    33     -34.858  19.888   0.466  1.00  0.00    -0.005 C 
ATOM   5281  C31 DYP    33     -34.546  18.928  -0.724  1.00  0.00     0.005 C 
ATOM   5282  P   POP    34      15.840  33.373  20.246  1.00  0.00     0.408 P 
ATOM   5283  C1  POP    34      14.002  33.293  18.570  1.00  0.00     0.216 C 
ATOM   5284  C2  POP    34      13.479  32.547  17.316  1.00  0.00     0.180 C 
ATOM   5285  O2  POP    34      14.865  33.398  23.973  1.00  0.00    -0.390 OA
ATOM   5286  C3  POP    34      12.466  33.420  16.618  1.00  0.00     0.213 C 
ATOM   5287  O3  POP    34      16.998  33.385  25.634  1.00  0.00    -0.390 OA
ATOM   5288  O4  POP    34      17.253  36.198  25.986  1.00  0.00    -0.390 OA
ATOM   5289  O5  POP    34      15.940  37.915  24.075  1.00  0.00    -0.390 OA
ATOM   5290  O6  POP    34      15.499  36.862  21.461  1.00  0.00    -0.390 OA
ATOM   5291  C11 POP    34      16.107  34.665  22.284  1.00  0.00     0.197 C 
ATOM   5292  O11 POP    34      14.934  32.525  19.301  1.00  0.00    -0.287 OA
ATOM   5293  C12 POP    34      16.162  33.722  23.464  1.00  0.00     0.181 C 
ATOM   5294  O12 POP    34      15.101  34.043  21.423  1.00  0.00    -0.279 OA
ATOM   5295  C13 POP    34      16.988  34.313  24.542  1.00  0.00     0.180 C 
ATOM   5296  O13 POP    34      16.787  32.466  20.934  1.00  0.00    -0.624 OA
ATOM   5297  C14 POP    34      16.434  35.668  24.946  1.00  0.00     0.180 C 
ATOM   5298  O14 POP    34      16.344  34.488  19.415  1.00  0.00    -0.624 OA
ATOM   5299  C15 POP    34      16.379  36.596  23.732  1.00  0.00     0.180 C 
ATOM   5300  C16 POP    34      15.544  36.004  22.619  1.00  0.00     0.181 C 
ATOM   5301  C21 POP    34      14.912  31.034  16.257  1.00  0.00     0.259 C 
ATOM   5302  O21 POP    34      14.478  32.268  16.310  1.00  0.00    -0.312 OA
ATOM   5303  C22 POP    34      16.146  30.938  15.301  1.00  0.00     0.111 C 
ATOM   5304  O22 POP    34      14.394  30.097  16.852  1.00  0.00    -0.265 OA
ATOM   5305  C23 POP    34      15.817  30.092  14.069  1.00  0.00     0.010 C 
ATOM   5306  C24 POP    34      17.031  29.947  13.138  1.00  0.00     0.000 C 
ATOM   5307  C25 POP    34      16.864  29.095  11.893  1.00  0.00     0.000 C 
ATOM   5308  C26 POP    34      15.699  29.527  11.066  1.00  0.00     0.000 C 
ATOM   5309  C27 POP    34      15.979  29.821   9.614  1.00  0.00     0.004 C 
ATOM   5310  C28 POP    34      16.477  31.242   9.439  1.00  0.00     0.027 C 
ATOM   5311  C29 POP    34      17.585  31.877  10.065  1.00  0.00    -0.031 C 
ATOM   5312  C31 POP    34      12.439  35.223  15.305  1.00  0.00     0.258 C 
ATOM   5313  O31 POP    34      13.202  34.554  16.116  1.00  0.00    -0.319 OA
ATOM   5314  C32 POP    34      13.179  36.590  14.987  1.00  0.00     0.111 C 
ATOM   5315  O32 POP    34      11.331  34.812  14.974  1.00  0.00    -0.265 OA
ATOM   5316  C33 POP    34      13.347  37.285  13.568  1.00  0.00     0.010 C 
ATOM   5317  C34 POP    34      13.422  36.319  12.353  1.00  0.00     0.000 C 
ATOM   5318  C35 POP    34      12.892  36.824  10.996  1.00  0.00     0.000 C 
ATOM   5319  C36 POP    34      13.231  36.418   9.640  1.00  0.00     0.000 C 
ATOM   5320  C37 POP    34      12.027  35.699   8.900  1.00  0.00     0.000 C 
ATOM   5321  C38 POP    34      11.012  34.604   9.649  1.00  0.00     0.000 C 
ATOM   5322  C39 POP    34       9.902  33.231   8.887  1.00  0.00     0.000 C 
ATOM   5323  C21 POP    34      17.665  33.187  10.372  1.00  0.00    -0.031 C 
ATOM   5324  C21 POP    34      16.669  34.330  10.161  1.00  0.00     0.027 C 
ATOM   5325  C21 POP    34      17.153  35.375   9.129  1.00  0.00     0.004 C 
ATOM   5326  C21 POP    34      17.392  34.840   7.705  1.00  0.00     0.000 C 
ATOM   5327  C21 POP    34      17.284  35.880   6.567  1.00  0.00     0.000 C 
ATOM   5328  C21 POP    34      15.883  36.472   6.327  1.00  0.00     0.000 C 
ATOM   5329  C21 POP    34      15.675  36.873   4.853  1.00  0.00    -0.000 C 
ATOM   5330  C21 POP    34      14.279  37.434   4.542  1.00  0.00    -0.005 C 
ATOM   5331  C21 POP    34      14.046  37.871   3.100  1.00  0.00     0.005 C 
ATOM   5332  C31 POP    34      10.222  32.003   7.492  1.00  0.00     0.000 C 
ATOM   5333  C31 POP    34       9.675  31.192   6.454  1.00  0.00     0.000 C 
ATOM   5334  C31 POP    34      10.719  30.428   5.587  1.00  0.00     0.000 C 
ATOM   5335  C31 POP    34      11.536  31.172   4.505  1.00  0.00     0.000 C 
ATOM   5336  C31 POP    34      12.720  30.284   4.102  1.00  0.00    -0.000 C 
ATOM   5337  C31 POP    34      13.431  30.679   2.816  1.00  0.00    -0.005 C 
ATOM   5338  C31 POP    34      12.474  30.707   1.631  1.00  0.00     0.005 C 
ATOM   5339  HO2 POP    34      14.943  32.562  24.414  1.00  0.00     0.210 HD
ATOM   5340  HO3 POP    34      17.552  32.617  25.488  1.00  0.00     0.210 HD
ATOM   5341  HO4 POP    34      18.170  36.115  25.721  1.00  0.00     0.210 HD
ATOM   5342  HO5 POP    34      15.042  37.860  24.430  1.00  0.00     0.210 HD
ATOM   5343  HO6 POP    34      14.656  37.310  21.405  1.00  0.00     0.210 HD
ATOM   5344  C1  ERG    35      37.860  -3.873  15.344  1.00  0.00     0.017 C 
ATOM   5345  C2  ERG    35      37.082  -3.603  16.649  1.00  0.00     0.033 C 
ATOM   5346  C3  ERG    35      36.448  -4.860  17.254  1.00  0.00     0.122 C 
ATOM   5347  O3  ERG    35      36.095  -4.553  18.591  1.00  0.00    -0.395 OA
ATOM   5348  C4  ERG    35      37.404  -6.069  17.232  1.00  0.00     0.066 C 
ATOM   5349  C5  ERG    35      38.061  -6.217  15.878  1.00  0.00    -0.069 C 
ATOM   5350  C6  ERG    35      37.889  -7.278  15.065  1.00  0.00     0.004 C 
ATOM   5351  C7  ERG    35      38.399  -7.360  13.821  1.00  0.00     0.004 C 
ATOM   5352  C8  ERG    35      39.148  -6.394  13.245  1.00  0.00    -0.070 C 
ATOM   5353  C9  ERG    35      39.590  -5.141  14.003  1.00  0.00     0.027 C 
ATOM   5354  C10 ERG    35      38.915  -5.004  15.421  1.00  0.00    -0.013 C 
ATOM   5355  C11 ERG    35      41.146  -4.919  13.943  1.00  0.00     0.011 C 
ATOM   5356  C12 ERG    35      41.740  -5.191  12.547  1.00  0.00     0.011 C 
ATOM   5357  C13 ERG    35      41.191  -6.472  11.903  1.00  0.00    -0.032 C 
ATOM   5358  C14 ERG    35      39.700  -6.426  11.836  1.00  0.00     0.023 C 
ATOM   5359  C15 ERG    35      39.291  -7.498  10.798  1.00  0.00     0.010 C 
ATOM   5360  C16 ERG    35      40.303  -7.255   9.685  1.00  0.00     0.007 C 
ATOM   5361  C17 ERG    35      41.548  -6.578  10.365  1.00  0.00     0.002 C 
ATOM   5362  C18 ERG    35      41.358  -7.711  12.797  1.00  0.00     0.016 C 
ATOM   5363  C19 ERG    35      40.003  -4.662  16.481  1.00  0.00     0.021 C 
ATOM   5364  C20 ERG    35      42.844  -7.140   9.781  1.00  0.00     0.008 C 
ATOM   5365  C21 ERG    35      44.263  -6.760  10.117  1.00  0.00     0.014 C 
ATOM   5366  C22 ERG    35      42.902  -7.265   8.270  1.00  0.00    -0.026 C 
ATOM   5367  C23 ERG    35      43.423  -8.260   7.512  1.00  0.00    -0.026 C 
ATOM   5368  C24 ERG    35      43.548  -8.539   6.112  1.00  0.00     0.007 C 
ATOM   5369  C25 ERG    35      42.472  -9.412   5.481  1.00  0.00    -0.015 C 
ATOM   5370  C26 ERG    35      42.844 -10.817   5.555  1.00  0.00     0.010 C 
ATOM   5371  C27 ERG    35      40.992  -9.220   5.929  1.00  0.00     0.010 C 
ATOM   5372  C28 ERG    35      43.307  -7.246   5.506  1.00  0.00     0.014 C 
ATOM   5373  H3' ERG    35      35.370  -3.924  18.510  1.00  0.00     0.210 HD
ATOM   5374  P   POP    36      37.854   4.700  19.790  1.00  0.00     0.408 P 
ATOM   5375  C1  POP    36      36.300   5.147  17.707  1.00  0.00     0.216 C 
ATOM   5376  C2  POP    36      35.088   4.182  17.904  1.00  0.00     0.180 C 
ATOM   5377  O2  POP    36      38.601   1.136  21.443  1.00  0.00    -0.390 OA
ATOM   5378  C3  POP    36      33.778   4.828  17.381  1.00  0.00     0.213 C 
ATOM   5379  O3  POP    36      39.490   1.445  24.149  1.00  0.00    -0.390 OA
ATOM   5380  O4  POP    36      36.995   0.823  25.407  1.00  0.00    -0.390 OA
ATOM   5381  O5  POP    36      34.814   0.976  23.862  1.00  0.00    -0.390 OA
ATOM   5382  O6  POP    36      34.685   2.931  21.773  1.00  0.00    -0.390 OA
ATOM   5383  C11 POP    36      37.094   3.081  21.782  1.00  0.00     0.197 C 
ATOM   5384  O11 POP    36      37.536   4.658  18.238  1.00  0.00    -0.287 OA
ATOM   5385  C12 POP    36      38.364   2.337  22.185  1.00  0.00     0.181 C 
ATOM   5386  O12 POP    36      37.094   3.372  20.386  1.00  0.00    -0.279 OA
ATOM   5387  C13 POP    36      38.293   2.036  23.679  1.00  0.00     0.180 C 
ATOM   5388  O13 POP    36      39.295   4.572  20.032  1.00  0.00    -0.624 OA
ATOM   5389  C14 POP    36      37.099   1.168  24.009  1.00  0.00     0.180 C 
ATOM   5390  O14 POP    36      37.250   5.916  20.390  1.00  0.00    -0.624 OA
ATOM   5391  C15 POP    36      35.863   1.881  23.567  1.00  0.00     0.180 C 
ATOM   5392  C16 POP    36      35.882   2.242  22.096  1.00  0.00     0.181 C 
ATOM   5393  C21 POP    36      35.036   1.838  17.795  1.00  0.00     0.259 C 
ATOM   5394  O21 POP    36      35.371   2.958  17.193  1.00  0.00    -0.312 OA
ATOM   5395  C22 POP    36      35.537   0.634  16.970  1.00  0.00     0.111 C 
ATOM   5396  O22 POP    36      34.448   1.715  18.851  1.00  0.00    -0.265 OA
ATOM   5397  C23 POP    36      34.828   0.495  15.593  1.00  0.00     0.010 C 
ATOM   5398  C24 POP    36      35.586  -0.209  14.436  1.00  0.00     0.000 C 
ATOM   5399  C25 POP    36      37.038   0.205  14.178  1.00  0.00     0.000 C 
ATOM   5400  C26 POP    36      37.142   1.543  13.444  1.00  0.00     0.000 C 
ATOM   5401  C27 POP    36      36.927   1.441  11.923  1.00  0.00     0.004 C 
ATOM   5402  C28 POP    36      37.728   2.508  11.166  1.00  0.00     0.027 C 
ATOM   5403  C29 POP    36      36.927   3.783  11.216  1.00  0.00    -0.031 C 
ATOM   5404  C31 POP    36      33.055   3.738  15.480  1.00  0.00     0.258 C 
ATOM   5405  O31 POP    36      33.718   4.758  15.963  1.00  0.00    -0.319 OA
ATOM   5406  C32 POP    36      33.137   3.919  14.034  1.00  0.00     0.111 C 
ATOM   5407  O32 POP    36      32.400   2.906  16.073  1.00  0.00    -0.265 OA
ATOM   5408  C33 POP    36      32.123   2.981  13.340  1.00  0.00     0.010 C 
ATOM   5409  C34 POP    36      31.952   3.020  11.777  1.00  0.00     0.000 C 
ATOM   5410  C35 POP    36      33.225   2.718  11.048  1.00  0.00     0.000 C 
ATOM   5411  C36 POP    36      33.427   1.181  11.137  1.00  0.00     0.000 C 
ATOM   5412  C37 POP    36      33.950   0.402   9.896  1.00  0.00     0.000 C 
ATOM   5413  C38 POP    36      34.148  -1.065  10.097  1.00  0.00     0.000 C 
ATOM   5414  C39 POP    36      34.591  -1.681   8.766  1.00  0.00     0.000 C 
ATOM   5415  C21 POP    36      36.166   4.235  10.201  1.00  0.00    -0.031 C 
ATOM   5416  C21 POP    36      35.996   3.548   8.860  1.00  0.00     0.027 C 
ATOM   5417  C21 POP    36      36.529   4.427   7.724  1.00  0.00     0.004 C 
ATOM   5418  C21 POP    36      36.472   3.662   6.395  1.00  0.00     0.000 C 
ATOM   5419  C21 POP    36      36.670   4.519   5.148  1.00  0.00     0.000 C 
ATOM   5420  C21 POP    36      36.492   3.671   3.895  1.00  0.00     0.000 C 
ATOM   5421  C21 POP    36      36.727   4.519   2.648  1.00  0.00    -0.000 C 
ATOM   5422  C21 POP    36      36.529   3.734   1.395  1.00  0.00    -0.005 C 
ATOM   5423  C21 POP    36      37.242   2.428   1.528  1.00  0.00     0.005 C 
ATOM   5424  C31 POP    36      33.538  -1.710   7.620  1.00  0.00     0.000 C 
ATOM   5425  C31 POP    36      33.803  -0.835   6.379  1.00  0.00     0.000 C 
ATOM   5426  C31 POP    36      32.992  -1.299   5.169  1.00  0.00     0.000 C 
ATOM   5427  C31 POP    36      33.308  -0.447   3.913  1.00  0.00     0.000 C 
ATOM   5428  C31 POP    36      32.935   1.040   4.098  1.00  0.00    -0.000 C 
ATOM   5429  C31 POP    36      32.789   2.097   3.044  1.00  0.00    -0.005 C 
ATOM   5430  C31 POP    36      31.812   1.763   2.083  1.00  0.00     0.005 C 
ATOM   5431  HO2 POP    36      37.980   0.488  21.747  1.00  0.00     0.210 HD
ATOM   5432  HO3 POP    36      40.028   2.110  24.596  1.00  0.00     0.210 HD
ATOM   5433  HO4 POP    36      36.508  -0.008  25.519  1.00  0.00     0.210 HD
ATOM   5434  HO5 POP    36      34.513   1.162  24.757  1.00  0.00     0.210 HD
ATOM   5435  HO6 POP    36      34.801   3.868  21.962  1.00  0.00     0.210 HD
ATOM   5436  C1  ERG    37     -37.034  -6.327  14.881  1.00  0.00     0.017 C 
ATOM   5437  C2  ERG    37     -37.554  -6.866  16.217  1.00  0.00     0.033 C 
ATOM   5438  C3  ERG    37     -37.233  -5.941  17.399  1.00  0.00     0.122 C 
ATOM   5439  O3  ERG    37     -37.967  -6.450  18.505  1.00  0.00    -0.395 OA
ATOM   5440  C4  ERG    37     -37.607  -4.464  17.075  1.00  0.00     0.066 C 
ATOM   5441  C5  ERG    37     -37.139  -4.045  15.689  1.00  0.00    -0.069 A 
ATOM   5442  C6  ERG    37     -36.260  -3.039  15.476  1.00  0.00     0.004 A 
ATOM   5443  C7  ERG    37     -35.702  -2.754  14.272  1.00  0.00     0.004 A 
ATOM   5444  C8  ERG    37     -35.980  -3.427  13.130  1.00  0.00    -0.070 A 
ATOM   5445  C9  ERG    37     -37.001  -4.556  13.113  1.00  0.00     0.027 A 
ATOM   5446  C10 ERG    37     -37.603  -4.941  14.509  1.00  0.00    -0.013 A 
ATOM   5447  C11 ERG    37     -38.022  -4.441  11.931  1.00  0.00     0.011 C 
ATOM   5448  C12 ERG    37     -37.317  -4.277  10.571  1.00  0.00     0.011 C 
ATOM   5449  C13 ERG    37     -36.321  -3.087  10.613  1.00  0.00    -0.032 C 
ATOM   5450  C14 ERG    37     -35.331  -3.300  11.759  1.00  0.00     0.023 C 
ATOM   5451  C15 ERG    37     -34.159  -2.328  11.463  1.00  0.00     0.010 C 
ATOM   5452  C16 ERG    37     -33.969  -2.462   9.944  1.00  0.00     0.007 C 
ATOM   5453  C17 ERG    37     -35.335  -2.994   9.421  1.00  0.00     0.002 C 
ATOM   5454  C18 ERG    37     -37.082  -1.756  10.863  1.00  0.00     0.016 C 
ATOM   5455  C19 ERG    37     -39.163  -4.991  14.403  1.00  0.00     0.021 C 
ATOM   5456  C20 ERG    37     -35.816  -2.418   8.091  1.00  0.00     0.008 C 
ATOM   5457  C21 ERG    37     -34.918  -2.978   6.949  1.00  0.00     0.014 C 
ATOM   5458  C22 ERG    37     -35.922  -0.940   7.855  1.00  0.00    -0.026 C 
ATOM   5459  C23 ERG    37     -36.850  -0.494   7.022  1.00  0.00    -0.026 C 
ATOM   5460  C24 ERG    37     -36.984   0.922   6.734  1.00  0.00     0.007 C 
ATOM   5461  C25 ERG    37     -37.792   1.154   5.477  1.00  0.00    -0.015 C 
ATOM   5462  C26 ERG    37     -39.265   0.895   5.697  1.00  0.00     0.010 C 
ATOM   5463  C27 ERG    37     -37.512   2.534   4.893  1.00  0.00     0.010 C 
ATOM   5464  C28 ERG    37     -37.470   1.622   7.950  1.00  0.00     0.014 C 
ATOM   5465  H3' ERG    37     -38.836  -6.617  18.136  1.00  0.00     0.210 HD
ATOM   5466  C1  ERG    38      33.374 -15.153  15.166  1.00  0.00     0.014 C 
ATOM   5467  C2  ERG    38      33.805 -14.842  16.504  1.00  0.00     0.001 C 
ATOM   5468  C3  ERG    38      35.562 -14.681  16.713  1.00  0.00     0.151 C 
ATOM   5469  O3  ERG    38      36.531 -14.249  17.811  1.00  0.00    -0.393 OA
ATOM   5470  C4  ERG    38      36.048 -13.511  16.028  1.00  0.00     0.069 C 
ATOM   5471  C5  ERG    38      35.529 -13.840  14.715  1.00  0.00    -0.068 A 
ATOM   5472  C6  ERG    38      36.462 -14.072  13.811  1.00  0.00     0.004 A 
ATOM   5473  C7  ERG    38      36.158 -14.350  12.557  1.00  0.00     0.004 A 
ATOM   5474  C8  ERG    38      34.891 -14.427  12.111  1.00  0.00    -0.070 A 
ATOM   5475  C9  ERG    38      33.676 -14.208  13.001  1.00  0.00     0.027 A 
ATOM   5476  C10 ERG    38      34.003 -13.958  14.460  1.00  0.00    -0.013 A 
ATOM   5477  C11 ERG    38      32.659 -13.222  12.397  1.00  0.00     0.011 C 
ATOM   5478  C12 ERG    38      32.317 -13.630  10.954  1.00  0.00     0.011 C 
ATOM   5479  C13 ERG    38      33.574 -13.809  10.078  1.00  0.00    -0.032 C 
ATOM   5480  C14 ERG    38      34.490 -14.806  10.761  1.00  0.00     0.023 C 
ATOM   5481  C15 ERG    38      35.585 -15.161   9.753  1.00  0.00     0.010 C 
ATOM   5482  C16 ERG    38      34.823 -15.159   8.434  1.00  0.00     0.007 C 
ATOM   5483  C17 ERG    38      33.401 -14.558   8.738  1.00  0.00     0.002 C 
ATOM   5484  C18 ERG    38      34.289 -12.447   9.858  1.00  0.00     0.016 C 
ATOM   5485  C19 ERG    38      33.341 -12.650  15.003  1.00  0.00     0.021 C 
ATOM   5486  C20 ERG    38      32.843 -13.803   7.526  1.00  0.00     0.008 C 
ATOM   5487  C21 ERG    38      31.360 -13.357   7.638  1.00  0.00     0.014 C 
ATOM   5488  C22 ERG    38      32.827 -14.766   6.365  1.00  0.00    -0.026 C 
ATOM   5489  C23 ERG    38      33.636 -14.719   5.294  1.00  0.00    -0.026 C 
ATOM   5490  C24 ERG    38      33.621 -15.683   4.137  1.00  0.00     0.007 C 
ATOM   5491  C25 ERG    38      33.759 -15.054   2.743  1.00  0.00    -0.015 C 
ATOM   5492  C26 ERG    38      32.455 -14.366   2.336  1.00  0.00     0.010 C 
ATOM   5493  C27 ERG    38      34.909 -14.035   2.622  1.00  0.00     0.010 C 
ATOM   5494  C28 ERG    38      34.811 -16.645   4.324  1.00  0.00     0.014 C 
ATOM   5495  H3' ERG    38      36.491 -14.786  18.634  1.00  0.00     0.210 HD
ATOM   5496  C1  ERG    39     -30.310  24.120  15.140  1.00  0.00     0.017 C 
ATOM   5497  C2  ERG    39     -30.176  23.325  16.449  1.00  0.00     0.033 C 
ATOM   5498  C3  ERG    39     -31.213  23.805  17.467  1.00  0.00     0.122 C 
ATOM   5499  O3  ERG    39     -31.129  22.932  18.578  1.00  0.00    -0.395 OA
ATOM   5500  C4  ERG    39     -32.657  23.770  16.909  1.00  0.00     0.066 C 
ATOM   5501  C5  ERG    39     -32.751  24.494  15.573  1.00  0.00    -0.069 A 
ATOM   5502  C6  ERG    39     -33.588  25.535  15.334  1.00  0.00     0.004 A 
ATOM   5503  C7  ERG    39     -33.613  26.270  14.195  1.00  0.00     0.004 A 
ATOM   5504  C8  ERG    39     -32.785  26.053  13.161  1.00  0.00    -0.070 A 
ATOM   5505  C9  ERG    39     -31.770  24.898  13.184  1.00  0.00     0.027 A 
ATOM   5506  C10 ERG    39     -31.723  24.037  14.504  1.00  0.00    -0.013 A 
ATOM   5507  C11 ERG    39     -31.926  24.104  11.858  1.00  0.00     0.011 C 
ATOM   5508  C12 ERG    39     -31.791  25.014  10.625  1.00  0.00     0.011 C 
ATOM   5509  C13 ERG    39     -32.815  26.165  10.607  1.00  0.00    -0.032 C 
ATOM   5510  C14 ERG    39     -32.672  26.924  11.927  1.00  0.00     0.023 C 
ATOM   5511  C15 ERG    39     -33.401  28.278  11.741  1.00  0.00     0.010 C 
ATOM   5512  C16 ERG    39     -33.174  28.563  10.244  1.00  0.00     0.007 C 
ATOM   5513  C17 ERG    39     -32.518  27.288   9.607  1.00  0.00     0.002 C 
ATOM   5514  C18 ERG    39     -34.277  25.677  10.458  1.00  0.00     0.016 C 
ATOM   5515  C19 ERG    39     -31.977  22.552  14.170  1.00  0.00     0.021 C 
ATOM   5516  C20 ERG    39     -32.920  27.081   8.141  1.00  0.00     0.008 C 
ATOM   5517  C21 ERG    39     -32.226  25.916   7.436  1.00  0.00     0.014 C 
ATOM   5518  C22 ERG    39     -32.595  28.314   7.417  1.00  0.00    -0.026 C 
ATOM   5519  C23 ERG    39     -33.550  28.987   6.816  1.00  0.00    -0.026 C 
ATOM   5520  C24 ERG    39     -33.252  30.230   6.129  1.00  0.00     0.007 C 
ATOM   5521  C25 ERG    39     -34.363  30.893   5.424  1.00  0.00    -0.015 C 
ATOM   5522  C26 ERG    39     -34.949  30.189   4.260  1.00  0.00     0.010 C 
ATOM   5523  C27 ERG    39     -35.274  30.912   6.411  1.00  0.00     0.010 C 
ATOM   5524  C28 ERG    39     -32.915  31.005   7.391  1.00  0.00     0.014 C 
ATOM   5525  H3' ERG    39     -31.457  22.088  18.247  1.00  0.00     0.210 HD
ATOM   5526  N   YOP    40     -12.391  37.556  20.939  1.00  0.00    -0.077 N 
ATOM   5527  P   YOP    40     -10.740  39.992  17.959  1.00  0.00     0.408 P 
ATOM   5528  C1  YOP    40      -8.462  40.249  16.556  1.00  0.00     0.216 C 
ATOM   5529  C2  YOP    40      -8.516  39.539  15.174  1.00  0.00     0.180 C 
ATOM   5530  C3  YOP    40      -8.412  37.989  15.257  1.00  0.00     0.213 C 
ATOM   5531  C11 YOP    40     -10.231  38.316  19.801  1.00  0.00     0.208 C 
ATOM   5532  O11 YOP    40      -9.297  39.578  17.488  1.00  0.00    -0.287 OA
ATOM   5533  C12 YOP    40     -11.342  37.287  19.903  1.00  0.00     0.256 C 
ATOM   5534  O12 YOP    40     -10.793  39.515  19.477  1.00  0.00    -0.288 OA
ATOM   5535  O13 YOP    40     -10.822  41.442  18.097  1.00  0.00    -0.624 OA
ATOM   5536  O14 YOP    40     -11.692  39.172  17.177  1.00  0.00    -0.624 OA
ATOM   5537  C21 YOP    40      -9.869  41.183  14.338  1.00  0.00     0.259 C 
ATOM   5538  O21 YOP    40      -9.730  39.893  14.546  1.00  0.00    -0.312 OA
ATOM   5539  C22 YOP    40     -11.350  41.481  14.332  1.00  0.00     0.111 C 
ATOM   5540  O22 YOP    40      -8.969  41.988  14.175  1.00  0.00    -0.265 OA
ATOM   5541  C23 YOP    40     -12.048  40.275  13.663  1.00  0.00     0.010 C 
ATOM   5542  C24 YOP    40     -13.345  40.595  12.994  1.00  0.00     0.000 C 
ATOM   5543  C25 YOP    40     -14.067  39.363  12.435  1.00  0.00     0.000 C 
ATOM   5544  C26 YOP    40     -13.509  38.918  11.071  1.00  0.00     0.000 C 
ATOM   5545  C27 YOP    40     -13.844  37.490  10.718  1.00  0.00     0.004 C 
ATOM   5546  C28 YOP    40     -13.203  36.932   9.349  1.00  0.00     0.027 C 
ATOM   5547  C29 YOP    40     -13.711  37.499   7.993  1.00  0.00    -0.031 C 
ATOM   5548  C31 YOP    40      -9.148  36.585  13.516  1.00  0.00     0.258 C 
ATOM   5549  O31 YOP    40      -8.193  37.345  14.006  1.00  0.00    -0.319 OA
ATOM   5550  C32 YOP    40      -8.550  35.869  12.307  1.00  0.00     0.111 C 
ATOM   5551  O32 YOP    40     -10.254  36.417  13.992  1.00  0.00    -0.265 OA
ATOM   5552  C33 YOP    40      -9.289  36.215  10.991  1.00  0.00     0.010 C 
ATOM   5553  C34 YOP    40      -9.165  37.688  10.544  1.00  0.00     0.000 C 
ATOM   5554  C35 YOP    40      -7.751  38.119  10.112  1.00  0.00     0.000 C 
ATOM   5555  C36 YOP    40      -7.575  39.646   9.961  1.00  0.00     0.000 C 
ATOM   5556  C37 YOP    40      -8.389  40.294   8.816  1.00  0.00     0.004 C 
ATOM   5557  C38 YOP    40      -7.963  39.971   7.363  1.00  0.00     0.027 C 
ATOM   5558  C39 YOP    40      -6.605  40.556   7.086  1.00  0.00    -0.031 C 
ATOM   5559  C21 YOP    40     -13.384  38.440   7.220  1.00  0.00    -0.031 C 
ATOM   5560  C21 YOP    40     -12.240  39.224   7.598  1.00  0.00     0.027 C 
ATOM   5561  C21 YOP    40     -11.500  38.906   6.307  1.00  0.00     0.004 C 
ATOM   5562  C21 YOP    40     -11.050  37.426   6.177  1.00  0.00     0.000 C 
ATOM   5563  C21 YOP    40      -9.933  37.283   5.167  1.00  0.00     0.000 C 
ATOM   5564  C21 YOP    40      -9.355  35.872   5.176  1.00  0.00     0.000 C 
ATOM   5565  C21 YOP    40      -7.879  35.858   4.771  1.00  0.00    -0.000 C 
ATOM   5566  C21 YOP    40      -7.600  36.463   3.378  1.00  0.00    -0.005 C 
ATOM   5567  C21 YOP    40      -8.162  35.683   2.184  1.00  0.00     0.005 C 
ATOM   5568  C31 YOP    40      -6.315  41.618   6.325  1.00  0.00    -0.031 C 
ATOM   5569  C31 YOP    40      -7.305  42.440   5.589  1.00  0.00     0.027 C 
ATOM   5570  C31 YOP    40      -7.263  42.228   4.087  1.00  0.00     0.004 C 
ATOM   5571  C31 YOP    40      -8.696  42.519   3.572  1.00  0.00     0.000 C 
ATOM   5572  C31 YOP    40      -9.018  42.949   2.155  1.00  0.00    -0.000 C 
ATOM   5573  C31 YOP    40      -8.931  41.899   0.997  1.00  0.00    -0.005 C 
ATOM   5574  C31 YOP    40      -9.798  40.717   0.984  1.00  0.00     0.005 C 
ATOM   5575  HN1 YOP    40     -11.796  37.863  21.748  1.00  0.00     0.274 HD
ATOM   5576  HN2 YOP    40     -12.796  38.490  20.831  1.00  0.00     0.274 HD
ATOM   5577  HN3 YOP    40     -12.810  36.765  21.494  1.00  0.00     0.274 HD
ATOM   5578  N   PYP    41       5.465  40.848  23.123  1.00  0.00    -0.077 N 
ATOM   5579  P   PYP    41       9.195  39.943  21.045  1.00  0.00     0.408 P 
ATOM   5580  C1  PYP    41       8.664  39.720  18.518  1.00  0.00     0.216 C 
ATOM   5581  C2  PYP    41       9.514  39.725  17.245  1.00  0.00     0.180 C 
ATOM   5582  C3  PYP    41       8.683  38.923  16.269  1.00  0.00     0.213 C 
ATOM   5583  C11 PYP    41       6.932  39.188  22.060  1.00  0.00     0.208 C 
ATOM   5584  O11 PYP    41       9.326  40.426  19.556  1.00  0.00    -0.287 OA
ATOM   5585  C12 PYP    41       5.484  39.666  22.193  1.00  0.00     0.256 C 
ATOM   5586  O12 PYP    41       7.613  40.105  21.212  1.00  0.00    -0.288 OA
ATOM   5587  O13 PYP    41       9.573  38.515  21.190  1.00  0.00    -0.624 OA
ATOM   5588  O14 PYP    41       9.781  40.940  21.945  1.00  0.00    -0.624 OA
ATOM   5589  C21 PYP    41      10.932  41.538  16.848  1.00  0.00     0.259 C 
ATOM   5590  O21 PYP    41       9.711  41.048  16.703  1.00  0.00    -0.312 OA
ATOM   5591  C22 PYP    41      10.984  42.939  16.243  1.00  0.00     0.111 C 
ATOM   5592  O22 PYP    41      11.885  40.989  17.367  1.00  0.00    -0.265 OA
ATOM   5593  C23 PYP    41      11.626  43.019  14.832  1.00  0.00     0.010 C 
ATOM   5594  C24 PYP    41      10.840  42.362  13.673  1.00  0.00     0.000 C 
ATOM   5595  C25 PYP    41       9.388  42.849  13.519  1.00  0.00     0.000 C 
ATOM   5596  C26 PYP    41       8.736  42.653  12.126  1.00  0.00     0.000 C 
ATOM   5597  C27 PYP    41       9.600  43.199  10.983  1.00  0.00     0.004 C 
ATOM   5598  C28 PYP    41       8.821  43.421   9.686  1.00  0.00     0.027 C 
ATOM   5599  C29 PYP    41       9.620  44.266   8.748  1.00  0.00    -0.031 C 
ATOM   5600  C31 PYP    41       9.846  37.528  15.091  1.00  0.00     0.258 C 
ATOM   5601  O31 PYP    41       9.438  38.725  15.132  1.00  0.00    -0.319 OA
ATOM   5602  C32 PYP    41      10.558  37.575  13.909  1.00  0.00     0.111 C 
ATOM   5603  O32 PYP    41       9.684  36.592  15.843  1.00  0.00    -0.265 OA
ATOM   5604  C33 PYP    41       9.674  37.681  12.694  1.00  0.00     0.010 C 
ATOM   5605  C34 PYP    41      10.520  37.816  11.521  1.00  0.00     0.000 C 
ATOM   5606  C35 PYP    41      10.061  37.801  10.055  1.00  0.00     0.000 C 
ATOM   5607  C36 PYP    41       9.390  39.115   9.937  1.00  0.00     0.000 C 
ATOM   5608  C37 PYP    41       8.777  39.464   8.604  1.00  0.00     0.000 C 
ATOM   5609  C38 PYP    41       7.565  38.578   8.308  1.00  0.00     0.000 C 
ATOM   5610  C39 PYP    41       6.549  39.218   7.358  1.00  0.00     0.000 C 
ATOM   5611  C21 PYP    41       9.603  44.187   7.411  1.00  0.00    -0.031 C 
ATOM   5612  C21 PYP    41       8.790  43.237   6.573  1.00  0.00     0.027 C 
ATOM   5613  C21 PYP    41       9.554  42.669   5.369  1.00  0.00     0.004 C 
ATOM   5614  C21 PYP    41      10.909  42.068   5.761  1.00  0.00     0.000 C 
ATOM   5615  C21 PYP    41      11.434  40.977   4.815  1.00  0.00    -0.000 C 
ATOM   5616  C21 PYP    41      11.770  41.510   3.406  1.00  0.00    -0.005 C 
ATOM   5617  C21 PYP    41      12.259  40.484   2.396  1.00  0.00     0.005 C 
ATOM   5618  C31 PYP    41       7.047  39.324   5.910  1.00  0.00     0.000 C 
ATOM   5619  C31 PYP    41       5.882  39.403   4.908  1.00  0.00     0.000 C 
ATOM   5620  C31 PYP    41       6.262  39.841   3.482  1.00  0.00     0.000 C 
ATOM   5621  C31 PYP    41       7.285  38.936   2.785  1.00  0.00     0.000 C 
ATOM   5622  C31 PYP    41       7.852  39.440   1.445  1.00  0.00    -0.000 C 
ATOM   5623  C31 PYP    41       9.030  38.530   1.061  1.00  0.00    -0.005 C 
ATOM   5624  C31 PYP    41       9.594  38.737  -0.311  1.00  0.00     0.005 C 
ATOM   5625  HN1 PYP    41       6.212  41.498  22.758  1.00  0.00     0.274 HD
ATOM   5626  HN2 PYP    41       4.563  41.377  23.151  1.00  0.00     0.274 HD
ATOM   5627  HN3 PYP    41       5.760  40.536  24.070  1.00  0.00     0.274 HD
ATOM   5628  N   YOP    42      39.390  12.633  19.590  1.00  0.00    -0.077 N 
ATOM   5629  P   YOP    42      37.455  15.778  18.156  1.00  0.00     0.408 P 
ATOM   5630  C1  YOP    42      36.358  14.471  16.177  1.00  0.00     0.216 C 
ATOM   5631  C2  YOP    42      37.159  13.851  15.001  1.00  0.00     0.180 C 
ATOM   5632  C3  YOP    42      36.380  13.515  13.700  1.00  0.00     0.213 C 
ATOM   5633  C11 YOP    42      37.195  14.051  20.147  1.00  0.00     0.209 C 
ATOM   5634  O11 YOP    42      37.167  14.431  17.367  1.00  0.00    -0.287 OA
ATOM   5635  C12 YOP    42      37.877  12.758  19.611  1.00  0.00     0.262 C 
ATOM   5636  O12 YOP    42      37.736  15.239  19.617  1.00  0.00    -0.288 OA
ATOM   5637  C13 YOP    42      39.817  11.229  19.337  1.00  0.00     0.271 C 
ATOM   5638  O13 YOP    42      36.243  16.619  18.100  1.00  0.00    -0.624 OA
ATOM   5639  C14 YOP    42      39.914  13.487  18.476  1.00  0.00     0.271 C 
ATOM   5640  O14 YOP    42      38.742  16.331  17.665  1.00  0.00    -0.624 OA
ATOM   5641  C15 YOP    42      39.928  13.105  20.888  1.00  0.00     0.271 C 
ATOM   5642  C21 YOP    42      39.423  14.428  14.913  1.00  0.00     0.259 C 
ATOM   5643  O21 YOP    42      38.185  14.782  14.653  1.00  0.00    -0.312 OA
ATOM   5644  C22 YOP    42      40.313  15.546  14.424  1.00  0.00     0.111 C 
ATOM   5645  O22 YOP    42      39.818  13.351  15.328  1.00  0.00    -0.265 OA
ATOM   5646  C23 YOP    42      40.923  15.097  13.104  1.00  0.00     0.010 C 
ATOM   5647  C24 YOP    42      41.407  16.298  12.361  1.00  0.00     0.000 C 
ATOM   5648  C25 YOP    42      42.038  15.841  11.060  1.00  0.00     0.000 C 
ATOM   5649  C26 YOP    42      41.123  15.303   9.972  1.00  0.00     0.000 C 
ATOM   5650  C27 YOP    42      41.711  14.570   8.754  1.00  0.00     0.004 C 
ATOM   5651  C28 YOP    42      40.881  14.560   7.420  1.00  0.00     0.027 C 
ATOM   5652  C29 YOP    42      41.520  13.742   6.286  1.00  0.00    -0.031 C 
ATOM   5653  C31 YOP    42      36.890  12.467  11.626  1.00  0.00     0.258 C 
ATOM   5654  O31 YOP    42      37.249  12.682  12.885  1.00  0.00    -0.319 OA
ATOM   5655  C32 YOP    42      37.935  11.592  10.908  1.00  0.00     0.111 C 
ATOM   5656  O32 YOP    42      35.876  12.899  11.108  1.00  0.00    -0.265 OA
ATOM   5657  C33 YOP    42      37.597  11.515   9.395  1.00  0.00     0.010 C 
ATOM   5658  C34 YOP    42      38.402  10.504   8.581  1.00  0.00     0.000 C 
ATOM   5659  C35 YOP    42      38.018  10.516   7.085  1.00  0.00     0.000 C 
ATOM   5660  C36 YOP    42      38.331  11.799   6.286  1.00  0.00     0.000 C 
ATOM   5661  C37 YOP    42      38.265  11.604   4.757  1.00  0.00     0.004 C 
ATOM   5662  C38 YOP    42      39.003  10.362   4.206  1.00  0.00     0.027 C 
ATOM   5663  C39 YOP    42      40.460  10.322   4.575  1.00  0.00    -0.031 C 
ATOM   5664  C21 YOP    42      41.829  14.036   5.001  1.00  0.00    -0.031 C 
ATOM   5665  C21 YOP    42      41.622  15.311   4.367  1.00  0.00     0.027 C 
ATOM   5666  C21 YOP    42      41.129  16.126   3.159  1.00  0.00     0.004 C 
ATOM   5667  C21 YOP    42      39.681  15.877   3.347  1.00  0.00     0.000 C 
ATOM   5668  C21 YOP    42      38.802  16.439   2.268  1.00  0.00     0.000 C 
ATOM   5669  C21 YOP    42      37.464  15.703   2.285  1.00  0.00     0.000 C 
ATOM   5670  C21 YOP    42      37.497  14.494   1.343  1.00  0.00    -0.000 C 
ATOM   5671  C21 YOP    42      37.199  14.943  -0.087  1.00  0.00    -0.005 C 
ATOM   5672  C21 YOP    42      37.325  13.852  -1.153  1.00  0.00     0.005 C 
ATOM   5673  C31 YOP    42      41.372  11.029   3.919  1.00  0.00    -0.031 C 
ATOM   5674  C31 YOP    42      41.070  11.936   2.754  1.00  0.00     0.027 C 
ATOM   5675  C31 YOP    42      41.675  11.460   1.464  1.00  0.00     0.004 C 
ATOM   5676  C31 YOP    42      41.222  12.182   0.182  1.00  0.00     0.000 C 
ATOM   5677  C31 YOP    42      41.208  13.714   0.094  1.00  0.00    -0.000 C 
ATOM   5678  C31 YOP    42      42.553  14.429   0.350  1.00  0.00    -0.005 C 
ATOM   5679  C31 YOP    42      43.679  14.173  -0.660  1.00  0.00     0.005 C 
ATOM   5680  P   YOP    43     -19.824  36.392  19.262  1.00  0.00     0.406 P 
ATOM   5681  C1  YOP    43     -21.014  37.993  17.533  1.00  0.00     0.216 C 
ATOM   5682  C2  YOP    43     -21.249  38.126  15.980  1.00  0.00     0.180 C 
ATOM   5683  C3  YOP    43     -20.894  39.580  15.494  1.00  0.00     0.213 C 
ATOM   5684  O11 YOP    43     -20.556  36.690  17.912  1.00  0.00    -0.287 OA
ATOM   5685  O12 YOP    43     -20.947  36.353  20.360  1.00  0.00    -0.300 OA
ATOM   5686  O13 YOP    43     -19.001  37.535  19.658  1.00  0.00    -0.624 OA
ATOM   5687  O14 YOP    43     -19.285  35.022  19.296  1.00  0.00    -0.624 OA
ATOM   5688  C21 YOP    43     -21.047  35.941  15.182  1.00  0.00     0.259 C 
ATOM   5689  O21 YOP    43     -20.497  37.157  15.196  1.00  0.00    -0.312 OA
ATOM   5690  C22 YOP    43     -20.270  34.983  14.250  1.00  0.00     0.111 C 
ATOM   5691  O22 YOP    43     -22.111  35.630  15.685  1.00  0.00    -0.265 OA
ATOM   5692  C23 YOP    43     -18.750  34.845  14.515  1.00  0.00     0.010 C 
ATOM   5693  C24 YOP    43     -17.972  34.160  13.381  1.00  0.00     0.000 C 
ATOM   5694  C25 YOP    43     -16.490  34.554  13.434  1.00  0.00     0.000 C 
ATOM   5695  C26 YOP    43     -15.883  34.516  12.075  1.00  0.00     0.000 C 
ATOM   5696  C27 YOP    43     -16.376  35.784  11.446  1.00  0.00     0.004 C 
ATOM   5697  C28 YOP    43     -16.075  35.566  10.028  1.00  0.00     0.027 C 
ATOM   5698  C29 YOP    43     -16.187  36.734   9.165  1.00  0.00    -0.031 C 
ATOM   5699  C31 YOP    43     -21.742  39.532  13.245  1.00  0.00     0.258 C 
ATOM   5700  O31 YOP    43     -20.739  39.820  14.066  1.00  0.00    -0.319 OA
ATOM   5701  C32 YOP    43     -21.410  40.012  11.824  1.00  0.00     0.111 C 
ATOM   5702  O32 YOP    43     -22.799  39.019  13.552  1.00  0.00    -0.265 OA
ATOM   5703  C33 YOP    43     -22.550  39.672  10.849  1.00  0.00     0.010 C 
ATOM   5704  C34 YOP    43     -22.280  40.294   9.474  1.00  0.00     0.000 C 
ATOM   5705  C35 YOP    43     -23.387  39.948   8.475  1.00  0.00     0.000 C 
ATOM   5706  C36 YOP    43     -23.291  38.530   7.888  1.00  0.00     0.000 C 
ATOM   5707  C37 YOP    43     -24.320  38.235   6.777  1.00  0.00     0.004 C 
ATOM   5708  C38 YOP    43     -23.839  37.132   5.810  1.00  0.00     0.027 C 
ATOM   5709  C39 YOP    43     -24.763  36.862   4.642  1.00  0.00    -0.031 C 
ATOM   5710  C21 YOP    43     -16.791  37.830   8.756  1.00  0.00    -0.031 C 
ATOM   5711  C21 YOP    43     -18.067  38.157   9.363  1.00  0.00     0.027 C 
ATOM   5712  C21 YOP    43     -18.917  37.799   8.129  1.00  0.00     0.004 C 
ATOM   5713  C21 YOP    43     -18.593  36.461   7.354  1.00  0.00     0.000 C 
ATOM   5714  C21 YOP    43     -19.494  36.245   6.148  1.00  0.00     0.000 C 
ATOM   5715  C21 YOP    43     -19.441  34.845   5.509  1.00  0.00     0.000 C 
ATOM   5716  C21 YOP    43     -20.144  34.912   4.139  1.00  0.00    -0.000 C 
ATOM   5717  C21 YOP    43     -20.321  33.602   3.342  1.00  0.00    -0.005 C 
ATOM   5718  C21 YOP    43     -21.109  33.768   2.030  1.00  0.00     0.005 C 
ATOM   5719  C31 YOP    43     -25.038  37.646   3.584  1.00  0.00    -0.031 C 
ATOM   5720  C31 YOP    43     -24.503  39.019   3.266  1.00  0.00     0.027 C 
ATOM   5721  C31 YOP    43     -23.475  39.018   2.167  1.00  0.00     0.004 C 
ATOM   5722  C31 YOP    43     -22.223  38.405   2.742  1.00  0.00     0.000 C 
ATOM   5723  C31 YOP    43     -21.158  38.635   1.767  1.00  0.00    -0.000 C 
ATOM   5724  C31 YOP    43     -20.263  39.757   1.289  1.00  0.00    -0.005 C 
ATOM   5725  C31 YOP    43     -19.293  40.119   2.372  1.00  0.00     0.005 C 
ATOM   5726  H12 YOP    43     -21.430  35.527  20.335  1.00  0.00     0.223 HD
ATOM   5727  N   POP    44      13.373 -39.556  21.435  1.00  0.00    -0.063 N 
ATOM   5728  P   POP    44      16.407 -39.456  17.911  1.00  0.00     0.408 P 
ATOM   5729  C1  POP    44      15.521 -40.482  15.716  1.00  0.00     0.216 C 
ATOM   5730  C2  POP    44      15.605 -41.989  15.403  1.00  0.00     0.180 C 
ATOM   5731  C3  POP    44      14.354 -42.525  14.648  1.00  0.00     0.213 C 
ATOM   5732  C11 POP    44      15.399 -40.386  20.144  1.00  0.00     0.225 C 
ATOM   5733  O11 POP    44      16.646 -40.117  16.510  1.00  0.00    -0.287 OA
ATOM   5734  C12 POP    44      13.890 -39.942  20.078  1.00  0.00     0.307 C 
ATOM   5735  O12 POP    44      15.955 -40.649  18.852  1.00  0.00    -0.287 OA
ATOM   5736  C13 POP    44      12.949 -40.986  19.422  1.00  0.00     0.206 C 
ATOM   5737  O13 POP    44      17.693 -38.951  18.427  1.00  0.00    -0.624 OA
ATOM   5738  O13 POP    44      12.173 -41.624  20.181  1.00  0.00    -0.646 OA
ATOM   5739  O13 POP    44      12.918 -41.108  18.178  1.00  0.00    -0.646 OA
ATOM   5740  O14 POP    44      15.302 -38.468  17.850  1.00  0.00    -0.624 OA
ATOM   5741  C21 POP    44      17.493 -43.244  14.766  1.00  0.00     0.259 C 
ATOM   5742  O21 POP    44      16.799 -42.157  14.602  1.00  0.00    -0.312 OA
ATOM   5743  C22 POP    44      18.729 -43.190  13.861  1.00  0.00     0.111 C 
ATOM   5744  O22 POP    44      17.217 -44.170  15.514  1.00  0.00    -0.265 OA
ATOM   5745  C23 POP    44      18.666 -44.333  12.847  1.00  0.00     0.010 C 
ATOM   5746  C24 POP    44      17.477 -44.363  11.872  1.00  0.00     0.000 C 
ATOM   5747  C25 POP    44      17.481 -43.214  10.868  1.00  0.00     0.000 C 
ATOM   5748  C26 POP    44      16.163 -43.117  10.103  1.00  0.00     0.000 C 
ATOM   5749  C27 POP    44      16.052 -44.156   8.969  1.00  0.00     0.004 C 
ATOM   5750  C28 POP    44      14.707 -44.152   8.204  1.00  0.00     0.027 C 
ATOM   5751  C29 POP    44      14.171 -42.771   7.916  1.00  0.00    -0.031 C 
ATOM   5752  C31 POP    44      13.134 -41.706  12.827  1.00  0.00     0.258 C 
ATOM   5753  O31 POP    44      14.327 -41.958  13.317  1.00  0.00    -0.319 OA
ATOM   5754  C32 POP    44      13.260 -40.759  11.632  1.00  0.00     0.111 C 
ATOM   5755  O32 POP    44      12.073 -42.117  13.264  1.00  0.00    -0.265 OA
ATOM   5756  C33 POP    44      12.018 -40.922  10.720  1.00  0.00     0.010 C 
ATOM   5757  C34 POP    44      11.919 -39.978   9.521  1.00  0.00     0.000 C 
ATOM   5758  C35 POP    44      11.782 -38.525   9.927  1.00  0.00     0.000 C 
ATOM   5759  C36 POP    44      11.070 -37.785   8.789  1.00  0.00     0.000 C 
ATOM   5760  C37 POP    44      11.839 -37.774   7.473  1.00  0.00     0.000 C 
ATOM   5761  C38 POP    44      12.388 -36.537   7.585  1.00  0.00     0.000 C 
ATOM   5762  C39 POP    44      14.000 -36.597   7.206  1.00  0.00     0.000 C 
ATOM   5763  C21 POP    44      14.084 -42.146   6.720  1.00  0.00    -0.031 C 
ATOM   5764  C21 POP    44      14.505 -42.674   5.364  1.00  0.00     0.027 C 
ATOM   5765  C21 POP    44      13.611 -42.388   4.131  1.00  0.00     0.004 C 
ATOM   5766  C21 POP    44      14.182 -43.095   2.875  1.00  0.00     0.000 C 
ATOM   5767  C21 POP    44      13.329 -42.826   1.616  1.00  0.00     0.000 C 
ATOM   5768  C21 POP    44      13.706 -43.626   0.333  1.00  0.00     0.000 C 
ATOM   5769  C21 POP    44      12.770 -43.554  -0.947  1.00  0.00    -0.000 C 
ATOM   5770  C21 POP    44      13.264 -44.468  -2.098  1.00  0.00    -0.005 C 
ATOM   5771  C21 POP    44      14.772 -44.460  -2.440  1.00  0.00     0.005 C 
ATOM   5772  C31 POP    44      15.053 -37.599   6.705  1.00  0.00     0.000 C 
ATOM   5773  C31 POP    44      16.408 -37.181   5.949  1.00  0.00     0.000 C 
ATOM   5774  C31 POP    44      17.117 -38.335   5.351  1.00  0.00     0.000 C 
ATOM   5775  C31 POP    44      16.204 -38.973   4.290  1.00  0.00     0.000 C 
ATOM   5776  C31 POP    44      15.357 -38.009   3.422  1.00  0.00    -0.000 C 
ATOM   5777  C31 POP    44      14.175 -38.476   2.522  1.00  0.00    -0.005 C 
ATOM   5778  C31 POP    44      13.289 -37.551   1.451  1.00  0.00     0.005 C 
ATOM   5779  HN1 POP    44      12.928 -40.420  21.838  1.00  0.00     0.275 HD
ATOM   5780  HN2 POP    44      14.063 -39.137  22.072  1.00  0.00     0.275 HD
ATOM   5781  HN3 POP    44      12.555 -38.925  21.342  1.00  0.00     0.275 HD
ATOM   5782  C1  ERG    45      22.469 -37.733  14.861  1.00  0.00     0.017 C 
ATOM   5783  C2  ERG    45      23.150 -38.331  16.056  1.00  0.00     0.033 C 
ATOM   5784  C3  ERG    45      22.284 -38.020  17.364  1.00  0.00     0.122 C 
ATOM   5785  O3  ERG    45      22.594 -38.497  18.708  1.00  0.00    -0.395 OA
ATOM   5786  C4  ERG    45      20.910 -38.421  17.400  1.00  0.00     0.066 C 
ATOM   5787  C5  ERG    45      20.308 -37.848  16.173  1.00  0.00    -0.069 A 
ATOM   5788  C6  ERG    45      19.285 -37.010  16.284  1.00  0.00     0.004 A 
ATOM   5789  C7  ERG    45      18.738 -36.396  15.241  1.00  0.00     0.004 A 
ATOM   5790  C8  ERG    45      19.192 -36.486  13.967  1.00  0.00    -0.070 A 
ATOM   5791  C9  ERG    45      20.323 -37.465  13.619  1.00  0.00     0.027 A 
ATOM   5792  C10 ERG    45      20.989 -38.180  14.836  1.00  0.00    -0.013 A 
ATOM   5793  C11 ERG    45      19.956 -38.388  12.420  1.00  0.00     0.011 C 
ATOM   5794  C12 ERG    45      19.378 -37.586  11.229  1.00  0.00     0.011 C 
ATOM   5795  C13 ERG    45      18.237 -36.583  11.618  1.00  0.00    -0.032 C 
ATOM   5796  C14 ERG    45      18.671 -35.663  12.825  1.00  0.00     0.023 C 
ATOM   5797  C15 ERG    45      17.528 -34.793  13.265  1.00  0.00     0.010 C 
ATOM   5798  C16 ERG    45      17.231 -34.338  11.768  1.00  0.00     0.001 C 
ATOM   5799  C17 ERG    45      17.849 -35.432  10.622  1.00  0.00     0.004 C 
ATOM   5800  C18 ERG    45      17.002 -37.504  12.087  1.00  0.00     0.016 C 
ATOM   5801  C19 ERG    45      20.844 -39.723  14.745  1.00  0.00     0.021 C 
ATOM   5802  C20 ERG    45      17.218 -35.957   9.213  1.00  0.00    -0.009 C 
ATOM   5803  C21 ERG    45      18.040 -36.834   8.359  1.00  0.00     0.011 C 
ATOM   5804  C22 ERG    45      16.833 -34.693   8.067  1.00  0.00     0.000 C 
ATOM   5805  C23 ERG    45      15.827 -34.022   8.269  1.00  0.00     0.000 C 
ATOM   5806  C24 ERG    45      14.758 -32.749   7.846  1.00  0.00    -0.002 C 
ATOM   5807  C25 ERG    45      13.774 -33.011   6.651  1.00  0.00    -0.018 C 
ATOM   5808  C26 ERG    45      13.606 -32.141   5.657  1.00  0.00     0.010 C 
ATOM   5809  C27 ERG    45      13.070 -34.135   6.105  1.00  0.00     0.010 C 
ATOM   5810  C28 ERG    45      14.106 -31.790   9.315  1.00  0.00     0.000 C 
ATOM   5811  H3' ERG    45      23.502 -38.210  18.921  1.00  0.00     0.210 HD
ATOM   5812  C1  ERG    46     -23.306 -37.870  15.370  1.00  0.00     0.017 C 
ATOM   5813  C2  ERG    46     -23.141 -37.694  16.888  1.00  0.00     0.033 C 
ATOM   5814  C3  ERG    46     -21.673 -37.530  17.309  1.00  0.00     0.122 C 
ATOM   5815  O3  ERG    46     -21.650 -37.182  18.682  1.00  0.00    -0.395 OA
ATOM   5816  C4  ERG    46     -20.928 -36.447  16.509  1.00  0.00     0.066 C 
ATOM   5817  C5  ERG    46     -21.087 -36.705  15.027  1.00  0.00    -0.069 A 
ATOM   5818  C6  ERG    46     -20.041 -36.898  14.194  1.00  0.00     0.004 A 
ATOM   5819  C7  ERG    46     -20.162 -37.225  12.887  1.00  0.00     0.004 A 
ATOM   5820  C8  ERG    46     -21.348 -37.396  12.269  1.00  0.00    -0.070 A 
ATOM   5821  C9  ERG    46     -22.678 -37.183  13.011  1.00  0.00     0.027 A 
ATOM   5822  C10 ERG    46     -22.544 -36.815  14.528  1.00  0.00    -0.013 A 
ATOM   5823  C11 ERG    46     -23.598 -36.228  12.188  1.00  0.00     0.011 C 
ATOM   5824  C12 ERG    46     -23.710 -36.627  10.702  1.00  0.00     0.011 C 
ATOM   5825  C13 ERG    46     -22.320 -36.774  10.033  1.00  0.00    -0.032 C 
ATOM   5826  C14 ERG    46     -21.555 -37.825  10.833  1.00  0.00     0.023 C 
ATOM   5827  C15 ERG    46     -20.409 -38.354   9.925  1.00  0.00     0.010 C 
ATOM   5828  C16 ERG    46     -20.905 -38.088   8.498  1.00  0.00     0.007 C 
ATOM   5829  C17 ERG    46     -22.302 -37.428   8.631  1.00  0.00     0.002 C 
ATOM   5830  C18 ERG    46     -21.500 -35.448  10.052  1.00  0.00     0.016 C 
ATOM   5831  C19 ERG    46     -23.141 -35.406  14.766  1.00  0.00     0.021 C 
ATOM   5832  C20 ERG    46     -22.657 -36.574   7.409  1.00  0.00     0.008 C 
ATOM   5833  C21 ERG    46     -24.186 -36.429   7.335  1.00  0.00     0.014 C 
ATOM   5834  C22 ERG    46     -22.321 -37.224   6.073  1.00  0.00    -0.026 C 
ATOM   5835  C23 ERG    46     -21.719 -36.660   5.004  1.00  0.00    -0.026 C 
ATOM   5836  C24 ERG    46     -21.446 -37.406   3.703  1.00  0.00     0.007 C 
ATOM   5837  C25 ERG    46     -22.362 -36.877   2.584  1.00  0.00    -0.015 C 
ATOM   5838  C26 ERG    46     -22.133 -35.380   2.254  1.00  0.00     0.010 C 
ATOM   5839  C27 ERG    46     -22.292 -37.808   1.353  1.00  0.00     0.010 C 
ATOM   5840  C28 ERG    46     -19.954 -37.461   3.277  1.00  0.00     0.014 C 
ATOM   5841  H3' ERG    46     -22.109 -36.340  18.731  1.00  0.00     0.210 HD
ATOM   5842  C1  ERG    47     -27.839 -33.024  14.749  1.00  0.00     0.017 C 
ATOM   5843  C2  ERG    47     -27.879 -33.218  16.117  1.00  0.00     0.033 C 
ATOM   5844  C3  ERG    47     -28.676 -32.374  16.816  1.00  0.00     0.122 C 
ATOM   5845  O3  ERG    47     -29.570 -32.926  17.731  1.00  0.00    -0.395 OA
ATOM   5846  C4  ERG    47     -29.973 -32.230  16.165  1.00  0.00     0.066 C 
ATOM   5847  C5  ERG    47     -30.041 -32.013  14.801  1.00  0.00    -0.069 A 
ATOM   5848  C6  ERG    47     -30.865 -31.214  14.151  1.00  0.00     0.004 A 
ATOM   5849  C7  ERG    47     -30.855 -31.226  12.827  1.00  0.00     0.004 A 
ATOM   5850  C8  ERG    47     -30.030 -32.014  12.111  1.00  0.00    -0.070 A 
ATOM   5851  C9  ERG    47     -29.149 -33.000  12.746  1.00  0.00     0.027 A 
ATOM   5852  C10 ERG    47     -29.218 -32.973  14.174  1.00  0.00    -0.013 A 
ATOM   5853  C11 ERG    47     -29.406 -34.346  12.074  1.00  0.00     0.011 C 
ATOM   5854  C12 ERG    47     -28.998 -34.302  10.623  1.00  0.00     0.011 C 
ATOM   5855  C13 ERG    47     -29.915 -33.326   9.981  1.00  0.00    -0.032 C 
ATOM   5856  C14 ERG    47     -29.698 -32.024  10.709  1.00  0.00     0.023 C 
ATOM   5857  C15 ERG    47     -30.338 -30.980   9.834  1.00  0.00     0.010 C 
ATOM   5858  C16 ERG    47     -29.974 -31.481   8.421  1.00  0.00     0.007 C 
ATOM   5859  C17 ERG    47     -29.439 -32.936   8.587  1.00  0.00     0.002 C 
ATOM   5860  C18 ERG    47     -31.422 -33.733  10.045  1.00  0.00     0.016 C 
ATOM   5861  C19 ERG    47     -30.024 -34.112  14.521  1.00  0.00     0.021 C 
ATOM   5862  C20 ERG    47     -29.646 -33.923   7.440  1.00  0.00     0.008 C 
ATOM   5863  C21 ERG    47     -28.774 -33.560   6.218  1.00  0.00     0.014 C 
ATOM   5864  C22 ERG    47     -31.068 -33.959   7.008  1.00  0.00    -0.026 C 
ATOM   5865  C23 ERG    47     -31.816 -35.042   7.129  1.00  0.00    -0.026 C 
ATOM   5866  C24 ERG    47     -33.202 -35.039   6.716  1.00  0.00     0.007 C 
ATOM   5867  C25 ERG    47     -33.159 -35.803   5.420  1.00  0.00    -0.015 C 
ATOM   5868  C26 ERG    47     -33.154 -37.345   5.579  1.00  0.00     0.010 C 
ATOM   5869  C27 ERG    47     -34.357 -35.404   4.720  1.00  0.00     0.010 C 
ATOM   5870  C28 ERG    47     -34.035 -35.589   7.908  1.00  0.00     0.014 C 
ATOM   5871  H3' ERG    47     -29.341 -32.527  18.549  1.00  0.00     0.210 HD
ATOM   5872  C1  ERG    48       6.037 -42.624  14.959  1.00  0.00     0.017 C 
ATOM   5873  C2  ERG    48       6.148 -43.522  16.151  1.00  0.00     0.033 C 
ATOM   5874  C3  ERG    48       5.036 -42.982  17.180  1.00  0.00     0.122 C 
ATOM   5875  O3  ERG    48       4.736 -43.546  18.488  1.00  0.00    -0.395 OA
ATOM   5876  C4  ERG    48       3.637 -43.033  16.809  1.00  0.00     0.066 C 
ATOM   5877  C5  ERG    48       3.610 -42.332  15.526  1.00  0.00    -0.069 A 
ATOM   5878  C6  ERG    48       2.793 -41.295  15.376  1.00  0.00     0.004 A 
ATOM   5879  C7  ERG    48       2.689 -40.670  14.209  1.00  0.00     0.004 A 
ATOM   5880  C8  ERG    48       3.430 -40.990  13.125  1.00  0.00    -0.070 A 
ATOM   5881  C9  ERG    48       4.521 -42.070  13.102  1.00  0.00     0.027 A 
ATOM   5882  C10 ERG    48       4.618 -42.805  14.440  1.00  0.00    -0.013 A 
ATOM   5883  C11 ERG    48       4.454 -42.896  11.798  1.00  0.00     0.011 C 
ATOM   5884  C12 ERG    48       4.461 -42.045  10.517  1.00  0.00     0.011 C 
ATOM   5885  C13 ERG    48       3.309 -41.092  10.532  1.00  0.00    -0.032 C 
ATOM   5886  C14 ERG    48       3.297 -40.324  11.836  1.00  0.00     0.023 C 
ATOM   5887  C15 ERG    48       2.526 -39.079  11.687  1.00  0.00     0.010 C 
ATOM   5888  C16 ERG    48       2.638 -38.994  10.138  1.00  0.00     0.007 C 
ATOM   5889  C17 ERG    48       3.428 -40.048   9.425  1.00  0.00     0.002 C 
ATOM   5890  C18 ERG    48       1.971 -41.840  10.548  1.00  0.00     0.016 C 
ATOM   5891  C19 ERG    48       4.418 -44.300  14.205  1.00  0.00     0.021 C 
ATOM   5892  C20 ERG    48       2.848 -40.377   8.017  1.00  0.00     0.008 C 
ATOM   5893  C21 ERG    48       3.701 -41.219   7.191  1.00  0.00     0.014 C 
ATOM   5894  C22 ERG    48       2.559 -39.121   7.386  1.00  0.00    -0.026 C 
ATOM   5895  C23 ERG    48       1.728 -38.736   6.557  1.00  0.00    -0.024 C 
ATOM   5896  C24 ERG    48       1.628 -37.160   6.225  1.00  0.00     0.024 C 
ATOM   5897  C25 ERG    48       0.973 -38.265   4.937  1.00  0.00    -0.011 C 
ATOM   5898  C26 ERG    48       2.035 -38.710   3.842  1.00  0.00     0.011 C 
ATOM   5899  C27 ERG    48      -1.075 -38.627   4.489  1.00  0.00     0.000 C 
ATOM   5900  C28 ERG    48       0.867 -35.631   7.084  1.00  0.00     0.000 C 
ATOM   5901  H3' ERG    48       5.550 -43.415  19.022  1.00  0.00     0.210 HD
ATOM   5902  N   POP    49     -35.082 -27.930  19.396  1.00  0.00    -0.063 N 
ATOM   5903  P   POP    49     -37.895 -24.539  20.360  1.00  0.00     0.408 P 
ATOM   5904  C1  POP    49     -35.920 -22.815  20.671  1.00  0.00     0.216 C 
ATOM   5905  C2  POP    49     -35.510 -22.051  19.366  1.00  0.00     0.180 C 
ATOM   5906  C3  POP    49     -33.976 -22.088  19.112  1.00  0.00     0.213 C 
ATOM   5907  C11 POP    49     -35.818 -25.860  19.717  1.00  0.00     0.225 C 
ATOM   5908  O11 POP    49     -37.298 -23.152  20.771  1.00  0.00    -0.287 OA
ATOM   5909  C12 POP    49     -35.684 -26.819  18.581  1.00  0.00     0.307 C 
ATOM   5910  O12 POP    49     -36.827 -24.987  19.333  1.00  0.00    -0.287 OA
ATOM   5911  C13 POP    49     -35.144 -26.129  17.195  1.00  0.00     0.206 C 
ATOM   5912  O13 POP    49     -37.833 -25.499  21.501  1.00  0.00    -0.624 OA
ATOM   5913  O13 POP    49     -34.009 -26.301  16.686  1.00  0.00    -0.646 OA
ATOM   5914  O13 POP    49     -36.020 -25.534  16.539  1.00  0.00    -0.646 OA
ATOM   5915  O14 POP    49     -39.171 -24.465  19.637  1.00  0.00    -0.624 OA
ATOM   5916  C21 POP    49     -37.320 -21.953  17.886  1.00  0.00     0.259 C 
ATOM   5917  O21 POP    49     -36.168 -22.542  18.182  1.00  0.00    -0.312 OA
ATOM   5918  C22 POP    49     -37.902 -22.547  16.594  1.00  0.00     0.111 C 
ATOM   5919  O22 POP    49     -37.764 -20.969  18.454  1.00  0.00    -0.265 OA
ATOM   5920  C23 POP    49     -39.389 -22.146  16.365  1.00  0.00     0.010 C 
ATOM   5921  C24 POP    49     -39.954 -22.522  14.978  1.00  0.00     0.000 C 
ATOM   5922  C25 POP    49     -40.232 -24.035  14.831  1.00  0.00     0.000 C 
ATOM   5923  C26 POP    49     -40.688 -24.526  13.438  1.00  0.00     0.000 C 
ATOM   5924  C27 POP    49     -39.626 -24.355  12.342  1.00  0.00     0.004 C 
ATOM   5925  C28 POP    49     -38.333 -25.200  12.503  1.00  0.00     0.027 C 
ATOM   5926  C29 POP    49     -38.383 -26.716  12.464  1.00  0.00    -0.031 C 
ATOM   5927  C31 POP    49     -33.319 -22.014  16.834  1.00  0.00     0.258 C 
ATOM   5928  O31 POP    49     -33.675 -21.355  17.927  1.00  0.00    -0.319 OA
ATOM   5929  C32 POP    49     -33.208 -20.958  15.723  1.00  0.00     0.111 C 
ATOM   5930  O32 POP    49     -33.020 -23.180  16.726  1.00  0.00    -0.265 OA
ATOM   5931  C33 POP    49     -34.133 -21.237  14.518  1.00  0.00     0.010 C 
ATOM   5932  C34 POP    49     -34.509 -19.898  13.875  1.00  0.00     0.000 C 
ATOM   5933  C35 POP    49     -35.508 -19.882  12.709  1.00  0.00     0.000 C 
ATOM   5934  C36 POP    49     -36.885 -20.483  13.031  1.00  0.00     0.000 C 
ATOM   5935  C37 POP    49     -37.959 -20.183  11.961  1.00  0.00     0.000 C 
ATOM   5936  C38 POP    49     -37.572 -20.553  10.509  1.00  0.00     0.000 C 
ATOM   5937  C39 POP    49     -37.352 -22.050  10.225  1.00  0.00     0.000 C 
ATOM   5938  C21 POP    49     -38.133 -27.478  11.390  1.00  0.00    -0.031 C 
ATOM   5939  C21 POP    49     -37.767 -26.945  10.033  1.00  0.00     0.027 C 
ATOM   5940  C21 POP    49     -37.250 -28.069   9.130  1.00  0.00     0.004 C 
ATOM   5941  C21 POP    49     -36.752 -27.537   7.785  1.00  0.00     0.000 C 
ATOM   5942  C21 POP    49     -35.229 -27.615   7.673  1.00  0.00     0.000 C 
ATOM   5943  C21 POP    49     -34.710 -26.784   6.492  1.00  0.00     0.000 C 
ATOM   5944  C21 POP    49     -34.714 -27.593   5.185  1.00  0.00    -0.000 C 
ATOM   5945  C21 POP    49     -33.799 -26.994   4.102  1.00  0.00    -0.005 C 
ATOM   5946  C21 POP    49     -33.777 -27.728   2.752  1.00  0.00     0.005 C 
ATOM   5947  C31 POP    49     -36.925 -22.362   8.775  1.00  0.00     0.000 C 
ATOM   5948  C31 POP    49     -35.614 -21.663   8.400  1.00  0.00     0.000 C 
ATOM   5949  C31 POP    49     -34.741 -22.372   7.381  1.00  0.00     0.000 C 
ATOM   5950  C31 POP    49     -33.746 -21.348   6.809  1.00  0.00     0.000 C 
ATOM   5951  C31 POP    49     -32.963 -21.985   5.700  1.00  0.00    -0.000 C 
ATOM   5952  C31 POP    49     -33.582 -22.345   4.339  1.00  0.00    -0.005 C 
ATOM   5953  C31 POP    49     -33.649 -21.208   3.319  1.00  0.00     0.005 C 
ATOM   5954  HN1 POP    49     -34.169 -27.438  19.253  1.00  0.00     0.275 HD
ATOM   5955  HN2 POP    49     -35.057 -28.158  20.393  1.00  0.00     0.275 HD
ATOM   5956  HN3 POP    49     -34.756 -28.724  18.801  1.00  0.00     0.275 HD
ATOM   5957  C1  ERG    50     -40.247  12.186  15.577  1.00  0.00     0.017 C 
ATOM   5958  C2  ERG    50     -40.274  11.315  16.815  1.00  0.00     0.033 C 
ATOM   5959  C3  ERG    50     -41.655  11.257  17.349  1.00  0.00     0.122 C 
ATOM   5960  O3  ERG    50     -41.408  10.397  18.462  1.00  0.00    -0.395 OA
ATOM   5961  C4  ERG    50     -42.693  10.743  16.276  1.00  0.00     0.066 C 
ATOM   5962  C5  ERG    50     -42.709  11.577  15.058  1.00  0.00    -0.069 C 
ATOM   5963  C6  ERG    50     -43.831  12.135  14.517  1.00  0.00     0.004 C 
ATOM   5964  C7  ERG    50     -43.825  12.930  13.439  1.00  0.00     0.004 C 
ATOM   5965  C8  ERG    50     -42.673  13.301  12.857  1.00  0.00    -0.070 C 
ATOM   5966  C9  ERG    50     -41.309  12.783  13.364  1.00  0.00     0.027 C 
ATOM   5967  C10 ERG    50     -41.301  11.740  14.510  1.00  0.00    -0.013 C 
ATOM   5968  C11 ERG    50     -40.381  12.416  12.189  1.00  0.00     0.011 C 
ATOM   5969  C12 ERG    50     -40.264  13.575  11.182  1.00  0.00     0.011 C 
ATOM   5970  C13 ERG    50     -41.646  14.004  10.634  1.00  0.00    -0.032 C 
ATOM   5971  C14 ERG    50     -42.550  14.341  11.800  1.00  0.00     0.023 C 
ATOM   5972  C15 ERG    50     -43.798  15.032  11.206  1.00  0.00     0.010 C 
ATOM   5973  C16 ERG    50     -43.217  15.801  10.014  1.00  0.00     0.007 C 
ATOM   5974  C17 ERG    50     -41.716  15.363   9.916  1.00  0.00     0.002 C 
ATOM   5975  C18 ERG    50     -42.295  12.879   9.785  1.00  0.00     0.016 C 
ATOM   5976  C19 ERG    50     -40.989  10.291  14.024  1.00  0.00     0.021 C 
ATOM   5977  C20 ERG    50     -41.147  15.454   8.515  1.00  0.00     0.008 C 
ATOM   5978  C21 ERG    50     -39.612  15.296   8.480  1.00  0.00     0.014 C 
ATOM   5979  C22 ERG    50     -41.488  16.756   7.852  1.00  0.00    -0.026 C 
ATOM   5980  C23 ERG    50     -42.124  16.728   6.688  1.00  0.00    -0.026 C 
ATOM   5981  C24 ERG    50     -42.522  17.929   5.905  1.00  0.00     0.007 C 
ATOM   5982  C25 ERG    50     -42.194  17.840   4.434  1.00  0.00    -0.015 C 
ATOM   5983  C26 ERG    50     -42.656  19.054   3.607  1.00  0.00     0.010 C 
ATOM   5984  C27 ERG    50     -40.679  17.662   4.312  1.00  0.00     0.010 C 
ATOM   5985  C28 ERG    50     -43.996  17.912   6.035  1.00  0.00     0.014 C 
ATOM   5986  H3' ERG    50     -41.771   9.494  18.283  1.00  0.00     0.210 HD
ATOM   5987  C1  ERG    51     -40.023  20.173  14.790  1.00  0.00     0.017 C 
ATOM   5988  C2  ERG    51     -39.557  19.702  16.198  1.00  0.00     0.033 C 
ATOM   5989  C3  ERG    51     -40.476  20.216  17.318  1.00  0.00     0.122 C 
ATOM   5990  O3  ERG    51     -40.179  19.614  18.576  1.00  0.00    -0.395 OA
ATOM   5991  C4  ERG    51     -41.942  19.908  16.960  1.00  0.00     0.066 C 
ATOM   5992  C5  ERG    51     -42.360  20.437  15.598  1.00  0.00    -0.069 C 
ATOM   5993  C6  ERG    51     -43.377  21.278  15.347  1.00  0.00     0.004 C 
ATOM   5994  C7  ERG    51     -43.671  21.976  14.268  1.00  0.00     0.004 C 
ATOM   5995  C8  ERG    51     -42.985  21.817  13.154  1.00  0.00    -0.070 C 
ATOM   5996  C9  ERG    51     -41.863  20.794  13.097  1.00  0.00     0.027 C 
ATOM   5997  C10 ERG    51     -41.516  19.989  14.426  1.00  0.00    -0.013 C 
ATOM   5998  C11 ERG    51     -42.113  19.914  11.842  1.00  0.00     0.011 C 
ATOM   5999  C12 ERG    51     -42.424  20.689  10.515  1.00  0.00     0.011 C 
ATOM   6000  C13 ERG    51     -43.480  21.842  10.644  1.00  0.00    -0.032 C 
ATOM   6001  C14 ERG    51     -43.246  22.574  11.893  1.00  0.00     0.023 C 
ATOM   6002  C15 ERG    51     -44.352  23.646  11.863  1.00  0.00     0.010 C 
ATOM   6003  C16 ERG    51     -44.595  23.894  10.353  1.00  0.00     0.007 C 
ATOM   6004  C17 ERG    51     -43.725  22.858   9.573  1.00  0.00     0.002 C 
ATOM   6005  C18 ERG    51     -44.878  21.514  10.785  1.00  0.00     0.016 C 
ATOM   6006  C19 ERG    51     -41.862  18.469  14.300  1.00  0.00     0.021 C 
ATOM   6007  C20 ERG    51     -44.330  22.515   8.205  1.00  0.00     0.008 C 
ATOM   6008  C21 ERG    51     -43.598  21.370   7.476  1.00  0.00     0.014 C 
ATOM   6009  C22 ERG    51     -44.106  23.612   7.229  1.00  0.00    -0.026 C 
ATOM   6010  C23 ERG    51     -45.107  24.121   6.520  1.00  0.00    -0.026 C 
ATOM   6011  C24 ERG    51     -44.993  25.179   5.537  1.00  0.00     0.007 C 
ATOM   6012  C25 ERG    51     -45.355  25.015   4.145  1.00  0.00    -0.015 C 
ATOM   6013  C26 ERG    51     -44.235  24.275   3.462  1.00  0.00     0.010 C 
ATOM   6014  C27 ERG    51     -46.780  24.415   4.185  1.00  0.00     0.010 C 
ATOM   6015  C28 ERG    51     -46.192  26.125   5.681  1.00  0.00     0.014 C 
ATOM   6016  H3' ERG    51     -39.226  19.482  18.571  1.00  0.00     0.210 HD
ATOM   6017  C1  ERG    52      35.996  28.451  16.225  1.00  0.00     0.017 C 
ATOM   6018  C2  ERG    52      35.522  29.037  17.571  1.00  0.00     0.033 C 
ATOM   6019  C3  ERG    52      34.163  29.712  17.394  1.00  0.00     0.122 C 
ATOM   6020  O3  ERG    52      33.658  30.186  18.631  1.00  0.00    -0.395 OA
ATOM   6021  C4  ERG    52      33.145  28.711  16.825  1.00  0.00     0.066 C 
ATOM   6022  C5  ERG    52      33.578  28.262  15.448  1.00  0.00    -0.069 C 
ATOM   6023  C6  ERG    52      32.858  28.505  14.329  1.00  0.00     0.004 C 
ATOM   6024  C7  ERG    52      33.305  28.277  13.073  1.00  0.00     0.004 C 
ATOM   6025  C8  ERG    52      34.543  27.818  12.791  1.00  0.00    -0.070 C 
ATOM   6026  C9  ERG    52      35.523  27.451  13.925  1.00  0.00     0.027 C 
ATOM   6027  C10 ERG    52      34.979  27.606  15.394  1.00  0.00    -0.013 C 
ATOM   6028  C11 ERG    52      36.277  26.109  13.666  1.00  0.00     0.011 C 
ATOM   6029  C12 ERG    52      36.911  26.076  12.269  1.00  0.00     0.011 C 
ATOM   6030  C13 ERG    52      35.825  26.281  11.218  1.00  0.00    -0.032 C 
ATOM   6031  C14 ERG    52      35.109  27.619  11.388  1.00  0.00     0.023 C 
ATOM   6032  C15 ERG    52      34.185  27.749  10.137  1.00  0.00     0.010 C 
ATOM   6033  C16 ERG    52      34.995  27.062   9.011  1.00  0.00     0.007 C 
ATOM   6034  C17 ERG    52      36.190  26.302   9.712  1.00  0.00     0.002 C 
ATOM   6035  C18 ERG    52      34.798  25.214  11.407  1.00  0.00     0.016 C 
ATOM   6036  C19 ERG    52      34.790  26.197  16.018  1.00  0.00     0.021 C 
ATOM   6037  C20 ERG    52      36.608  24.983   8.990  1.00  0.00     0.008 C 
ATOM   6038  C21 ERG    52      37.783  24.225   9.651  1.00  0.00     0.014 C 
ATOM   6039  C22 ERG    52      37.099  25.331   7.608  1.00  0.00    -0.026 C 
ATOM   6040  C23 ERG    52      36.782  24.744   6.436  1.00  0.00    -0.026 C 
ATOM   6041  C24 ERG    52      37.335  25.200   5.096  1.00  0.00     0.007 C 
ATOM   6042  C25 ERG    52      36.547  24.746   3.865  1.00  0.00    -0.015 C 
ATOM   6043  C26 ERG    52      36.759  23.248   3.591  1.00  0.00     0.010 C 
ATOM   6044  C27 ERG    52      35.043  24.992   4.031  1.00  0.00     0.010 C 
ATOM   6045  C28 ERG    52      37.297  26.748   5.074  1.00  0.00     0.014 C 
ATOM   6046  H3' ERG    52      34.361  30.576  19.151  1.00  0.00     0.210 HD
ATOM   6047  C1  ERG    53     -14.256 -43.975  14.907  1.00  0.00     0.017 C 
ATOM   6048  C2  ERG    53     -14.727 -44.031  16.372  1.00  0.00     0.033 C 
ATOM   6049  C3  ERG    53     -13.704 -43.335  17.304  1.00  0.00     0.122 C 
ATOM   6050  O3  ERG    53     -14.001 -43.468  18.691  1.00  0.00    -0.395 OA
ATOM   6051  C4  ERG    53     -13.460 -41.865  16.862  1.00  0.00     0.066 C 
ATOM   6052  C5  ERG    53     -12.915 -41.852  15.447  1.00  0.00    -0.069 C 
ATOM   6053  C6  ERG    53     -11.764 -41.245  15.082  1.00  0.00     0.004 C 
ATOM   6054  C7  ERG    53     -11.254 -41.265  13.830  1.00  0.00     0.004 C 
ATOM   6055  C8  ERG    53     -11.801 -41.944  12.802  1.00  0.00    -0.070 C 
ATOM   6056  C9  ERG    53     -13.098 -42.748  12.978  1.00  0.00     0.027 C 
ATOM   6057  C10 ERG    53     -13.796 -42.578  14.392  1.00  0.00    -0.013 C 
ATOM   6058  C11 ERG    53     -14.062 -42.593  11.744  1.00  0.00     0.011 C 
ATOM   6059  C12 ERG    53     -13.393 -42.632  10.352  1.00  0.00     0.011 C 
ATOM   6060  C13 ERG    53     -12.151 -41.705  10.285  1.00  0.00    -0.032 C 
ATOM   6061  C14 ERG    53     -11.195 -42.074  11.419  1.00  0.00     0.023 C 
ATOM   6062  C15 ERG    53      -9.837 -41.425  11.036  1.00  0.00     0.010 C 
ATOM   6063  C16 ERG    53      -9.778 -41.658   9.527  1.00  0.00     0.007 C 
ATOM   6064  C17 ERG    53     -11.237 -41.911   9.055  1.00  0.00     0.002 C 
ATOM   6065  C18 ERG    53     -12.519 -40.207  10.438  1.00  0.00     0.016 C 
ATOM   6066  C19 ERG    53     -15.020 -41.615  14.313  1.00  0.00     0.021 C 
ATOM   6067  C20 ERG    53     -11.551 -41.192   7.759  1.00  0.00     0.008 C 
ATOM   6068  C21 ERG    53     -12.827 -41.797   7.127  1.00  0.00     0.014 C 
ATOM   6069  C22 ERG    53     -10.620 -41.448   6.639  1.00  0.00    -0.026 C 
ATOM   6070  C23 ERG    53     -10.049 -40.454   5.919  1.00  0.00    -0.026 C 
ATOM   6071  C24 ERG    53      -9.131 -40.686   4.761  1.00  0.00     0.008 C 
ATOM   6072  C25 ERG    53      -8.117 -41.311   5.359  1.00  0.00     0.003 C 
ATOM   6073  C26 ERG    53      -7.747 -42.898   4.628  1.00  0.00     0.000 C 
ATOM   6074  C27 ERG    53      -7.349 -40.015   6.309  1.00  0.00     0.000 C 
ATOM   6075  C28 ERG    53      -9.711 -41.729   3.828  1.00  0.00     0.014 C 
ATOM   6076  H3' ERG    53     -14.404 -44.349  18.794  1.00  0.00     0.210 HD
ATOM   6077  C1  ERG    54      44.733  -0.954  15.201  1.00  0.00     0.015 C 
ATOM   6078  C2  ERG    54      45.098  -0.494  16.628  1.00  0.00     0.006 C 
ATOM   6079  C3  ERG    54      45.491  -1.588  17.308  1.00  0.00    -0.006 C 
ATOM   6080  O3  ERG    54      46.329  -0.982  18.725  1.00  0.00     0.000 OA
ATOM   6081  C4  ERG    54      46.246  -2.673  16.049  1.00  0.00     0.039 C 
ATOM   6082  C5  ERG    54      46.167  -2.975  14.677  1.00  0.00    -0.071 C 
ATOM   6083  C6  ERG    54      46.405  -4.133  14.020  1.00  0.00     0.004 C 
ATOM   6084  C7  ERG    54      46.024  -4.204  12.745  1.00  0.00     0.004 C 
ATOM   6085  C8  ERG    54      45.362  -3.165  12.166  1.00  0.00    -0.070 C 
ATOM   6086  C9  ERG    54      45.081  -1.855  12.904  1.00  0.00     0.027 C 
ATOM   6087  C10 ERG    54      45.749  -1.659  14.238  1.00  0.00    -0.013 C 
ATOM   6088  C11 ERG    54      45.314  -0.610  12.024  1.00  0.00     0.011 C 
ATOM   6089  C12 ERG    54      44.645  -0.742  10.652  1.00  0.00     0.011 C 
ATOM   6090  C13 ERG    54      45.185  -1.986   9.941  1.00  0.00    -0.032 C 
ATOM   6091  C14 ERG    54      44.761  -3.045  10.860  1.00  0.00     0.023 C 
ATOM   6092  C15 ERG    54      44.987  -4.183  10.005  1.00  0.00     0.010 C 
ATOM   6093  C16 ERG    54      44.865  -3.924   8.522  1.00  0.00     0.007 C 
ATOM   6094  C17 ERG    54      44.567  -2.438   8.576  1.00  0.00     0.002 C 
ATOM   6095  C18 ERG    54      46.738  -2.112   9.835  1.00  0.00     0.016 C 
ATOM   6096  C19 ERG    54      47.121  -0.893  14.152  1.00  0.00     0.021 C 
ATOM   6097  C20 ERG    54      45.049  -1.776   7.291  1.00  0.00     0.008 C 
ATOM   6098  C21 ERG    54      44.567  -0.316   7.268  1.00  0.00     0.014 C 
ATOM   6099  C22 ERG    54      44.559  -2.485   6.028  1.00  0.00    -0.026 C 
ATOM   6100  C23 ERG    54      45.326  -2.972   5.027  1.00  0.00    -0.026 C 
ATOM   6101  C24 ERG    54      44.743  -3.676   3.807  1.00  0.00     0.007 C 
ATOM   6102  C25 ERG    54      45.337  -3.658   2.448  1.00  0.00    -0.015 C 
ATOM   6103  C26 ERG    54      45.296  -2.255   2.008  1.00  0.00     0.010 C 
ATOM   6104  C27 ERG    54      46.782  -4.160   2.282  1.00  0.00     0.010 C 
ATOM   6105  C28 ERG    54      44.783  -5.135   4.112  1.00  0.00     0.014 C 
ATOM   6106  H3' ERG    54      46.083  -1.772  19.513  1.00  0.00     0.000 HD
ATOM   6107  C1  ERG    55      19.992  41.403  15.806  1.00  0.00     0.017 C 
ATOM   6108  C2  ERG    55      19.500  41.624  17.259  1.00  0.00     0.033 C 
ATOM   6109  C3  ERG    55      18.275  42.557  17.398  1.00  0.00     0.122 C 
ATOM   6110  O3  ERG    55      17.740  42.317  18.682  1.00  0.00    -0.395 OA
ATOM   6111  C4  ERG    55      17.172  42.314  16.355  1.00  0.00     0.066 C 
ATOM   6112  C5  ERG    55      17.799  42.143  14.983  1.00  0.00    -0.069 C 
ATOM   6113  C6  ERG    55      17.547  42.983  13.954  1.00  0.00     0.004 C 
ATOM   6114  C7  ERG    55      18.101  42.881  12.724  1.00  0.00     0.004 C 
ATOM   6115  C8  ERG    55      18.953  41.911  12.360  1.00  0.00    -0.070 C 
ATOM   6116  C9  ERG    55      19.391  40.830  13.368  1.00  0.00     0.027 C 
ATOM   6117  C10 ERG    55      18.838  40.994  14.841  1.00  0.00    -0.013 C 
ATOM   6118  C11 ERG    55      19.074  39.460  12.705  1.00  0.00     0.011 C 
ATOM   6119  C12 ERG    55      19.646  39.295  11.280  1.00  0.00     0.011 C 
ATOM   6120  C13 ERG    55      19.247  40.425  10.304  1.00  0.00    -0.032 C 
ATOM   6121  C14 ERG    55      19.538  41.768  10.965  1.00  0.00     0.023 C 
ATOM   6122  C15 ERG    55      19.320  42.790   9.816  1.00  0.00     0.010 C 
ATOM   6123  C16 ERG    55      20.107  42.114   8.689  1.00  0.00     0.007 C 
ATOM   6124  C17 ERG    55      20.155  40.595   9.049  1.00  0.00     0.002 C 
ATOM   6125  C18 ERG    55      17.720  40.375   9.951  1.00  0.00     0.016 C 
ATOM   6126  C19 ERG    55      18.282  39.627  15.353  1.00  0.00     0.021 C 
ATOM   6127  C20 ERG    55      19.806  39.770   7.833  1.00  0.00     0.008 C 
ATOM   6128  C21 ERG    55      19.703  38.292   8.197  1.00  0.00     0.014 C 
ATOM   6129  C22 ERG    55      20.665  40.024   6.595  1.00  0.00    -0.026 C 
ATOM   6130  C23 ERG    55      20.095  40.469   5.463  1.00  0.00    -0.026 C 
ATOM   6131  C24 ERG    55      20.796  40.769   4.152  1.00  0.00     0.007 C 
ATOM   6132  C25 ERG    55      20.143  40.138   2.931  1.00  0.00    -0.015 C 
ATOM   6133  C26 ERG    55      20.431  38.632   2.996  1.00  0.00     0.010 C 
ATOM   6134  C27 ERG    55      18.635  40.463   2.894  1.00  0.00     0.010 C 
ATOM   6135  C28 ERG    55      20.882  42.280   3.868  1.00  0.00     0.014 C 
ATOM   6136  H3' ERG    55      17.893  41.374  18.767  1.00  0.00     0.210 HD
ATOM   6137  N   POP    56      45.931 -12.419  21.898  1.00  0.00    -0.077 N 
ATOM   6138  P   POP    56      44.735 -10.400  17.847  1.00  0.00     0.408 P 
ATOM   6139  C1  POP    56      46.541 -11.323  16.130  1.00  0.00     0.216 C 
ATOM   6140  C2  POP    56      46.482 -11.151  14.588  1.00  0.00     0.180 C 
ATOM   6141  C3  POP    56      46.228 -12.525  13.906  1.00  0.00     0.213 C 
ATOM   6142  C11 POP    56      44.932 -12.343  19.661  1.00  0.00     0.208 C 
ATOM   6143  O11 POP    56      45.220 -11.319  16.671  1.00  0.00    -0.287 OA
ATOM   6144  C12 POP    56      44.835 -11.811  21.094  1.00  0.00     0.256 C 
ATOM   6145  O12 POP    56      44.151 -11.511  18.822  1.00  0.00    -0.288 OA
ATOM   6146  O13 POP    56      45.922  -9.811  18.509  1.00  0.00    -0.624 OA
ATOM   6147  O14 POP    56      43.651  -9.497  17.410  1.00  0.00    -0.624 OA
ATOM   6148  C21 POP    56      45.601  -9.025  14.616  1.00  0.00     0.259 C 
ATOM   6149  O21 POP    56      45.397 -10.285  14.269  1.00  0.00    -0.312 OA
ATOM   6150  C22 POP    56      44.308  -8.278  14.615  1.00  0.00     0.111 C 
ATOM   6151  O22 POP    56      46.686  -8.483  14.752  1.00  0.00    -0.265 OA
ATOM   6152  C23 POP    56      44.429  -7.579  13.324  1.00  0.00     0.010 C 
ATOM   6153  C24 POP    56      44.454  -8.748  12.277  1.00  0.00     0.000 C 
ATOM   6154  C25 POP    56      43.385  -9.872  12.023  1.00  0.00     0.000 C 
ATOM   6155  C26 POP    56      43.524 -10.624  10.738  1.00  0.00     0.000 C 
ATOM   6156  C27 POP    56      42.622 -10.087   9.693  1.00  0.00     0.004 C 
ATOM   6157  C28 POP    56      42.520 -10.856   8.522  1.00  0.00     0.027 C 
ATOM   6158  C29 POP    56      41.472 -11.872   8.476  1.00  0.00    -0.031 C 
ATOM   6159  C31 POP    56      47.158 -12.285  11.800  1.00  0.00     0.258 C 
ATOM   6160  O31 POP    56      46.035 -12.434  12.480  1.00  0.00    -0.319 OA
ATOM   6161  C32 POP    56      46.856 -12.124  10.324  1.00  0.00     0.111 C 
ATOM   6162  O32 POP    56      48.280 -12.234  12.270  1.00  0.00    -0.265 OA
ATOM   6163  C33 POP    56      47.145 -10.654   9.993  1.00  0.00     0.010 C 
ATOM   6164  C34 POP    56      47.000 -10.334   8.514  1.00  0.00     0.000 C 
ATOM   6165  C35 POP    56      47.753 -11.292   7.573  1.00  0.00     0.000 C 
ATOM   6166  C36 POP    56      49.238 -11.560   7.883  1.00  0.00     0.000 C 
ATOM   6167  C37 POP    56      49.912 -12.477   6.830  1.00  0.00     0.000 C 
ATOM   6168  C38 POP    56      49.099 -13.725   6.397  1.00  0.00     0.000 C 
ATOM   6169  C39 POP    56      49.846 -14.736   5.497  1.00  0.00     0.000 C 
ATOM   6170  C21 POP    56      41.855 -13.129   8.499  1.00  0.00    -0.031 C 
ATOM   6171  C21 POP    56      43.315 -13.521   8.577  1.00  0.00     0.027 C 
ATOM   6172  C21 POP    56      43.804 -14.168   7.259  1.00  0.00     0.004 C 
ATOM   6173  C21 POP    56      44.122 -13.234   6.116  1.00  0.00     0.000 C 
ATOM   6174  C21 POP    56      44.585 -13.731   4.756  1.00  0.00     0.000 C 
ATOM   6175  C21 POP    56      45.315 -12.699   3.849  1.00  0.00     0.000 C 
ATOM   6176  C21 POP    56      44.437 -11.891   2.857  1.00  0.00    -0.000 C 
ATOM   6177  C21 POP    56      45.139 -10.873   1.930  1.00  0.00    -0.005 C 
ATOM   6178  C21 POP    56      46.326 -11.442   1.154  1.00  0.00     0.005 C 
ATOM   6179  C31 POP    56      48.943 -15.873   4.982  1.00  0.00     0.000 C 
ATOM   6180  C31 POP    56      47.912 -15.540   3.893  1.00  0.00     0.000 C 
ATOM   6181  C31 POP    56      48.486 -15.054   2.556  1.00  0.00     0.000 C 
ATOM   6182  C31 POP    56      47.635 -15.505   1.354  1.00  0.00     0.000 C 
ATOM   6183  C31 POP    56      48.162 -14.919   0.040  1.00  0.00    -0.000 C 
ATOM   6184  C31 POP    56      47.236 -15.144  -1.165  1.00  0.00    -0.005 C 
ATOM   6185  C31 POP    56      47.897 -14.811  -2.505  1.00  0.00     0.005 C 
ATOM   6186  HN1 POP    56      45.941 -13.450  21.778  1.00  0.00     0.274 HD
ATOM   6187  HN2 POP    56      46.783 -12.033  21.450  1.00  0.00     0.274 HD
ATOM   6188  HN3 POP    56      45.932 -12.132  22.909  1.00  0.00     0.274 HD
ATOM   6189  C1  ERG    57       2.463  47.261  14.926  1.00  0.00     0.017 C 
ATOM   6190  C2  ERG    57       2.730  46.621  16.308  1.00  0.00     0.033 C 
ATOM   6191  C3  ERG    57       1.855  47.214  17.430  1.00  0.00     0.122 C 
ATOM   6192  O3  ERG    57       1.962  46.440  18.627  1.00  0.00    -0.395 OA
ATOM   6193  C4  ERG    57       0.403  47.207  16.986  1.00  0.00     0.066 C 
ATOM   6194  C5  ERG    57       0.179  47.891  15.683  1.00  0.00    -0.069 A 
ATOM   6195  C6  ERG    57      -0.587  48.990  15.556  1.00  0.00     0.004 A 
ATOM   6196  C7  ERG    57      -0.708  49.679  14.410  1.00  0.00     0.004 A 
ATOM   6197  C8  ERG    57      -0.083  49.341  13.266  1.00  0.00    -0.070 A 
ATOM   6198  C9  ERG    57       0.807  48.080  13.179  1.00  0.00     0.027 A 
ATOM   6199  C10 ERG    57       0.972  47.268  14.516  1.00  0.00    -0.013 A 
ATOM   6200  C11 ERG    57       0.476  47.235  11.906  1.00  0.00     0.011 C 
ATOM   6201  C12 ERG    57       0.422  48.099  10.623  1.00  0.00     0.011 C 
ATOM   6202  C13 ERG    57      -0.559  49.272  10.787  1.00  0.00    -0.032 C 
ATOM   6203  C14 ERG    57      -0.162  50.133  11.982  1.00  0.00     0.023 C 
ATOM   6204  C15 ERG    57      -0.988  51.449  11.872  1.00  0.00     0.010 C 
ATOM   6205  C16 ERG    57      -1.145  51.650  10.353  1.00  0.00     0.007 C 
ATOM   6206  C17 ERG    57      -0.569  50.360   9.679  1.00  0.00     0.002 C 
ATOM   6207  C18 ERG    57      -1.983  48.734  11.005  1.00  0.00     0.016 C 
ATOM   6208  C19 ERG    57       0.517  45.798  14.318  1.00  0.00     0.021 C 
ATOM   6209  C20 ERG    57      -1.086  49.998   8.267  1.00  0.00     0.008 C 
ATOM   6210  C21 ERG    57      -0.702  51.107   7.270  1.00  0.00     0.014 C 
ATOM   6211  C22 ERG    57      -2.522  49.707   8.167  1.00  0.00    -0.026 C 
ATOM   6212  C23 ERG    57      -3.034  48.592   7.612  1.00  0.00    -0.026 C 
ATOM   6213  C24 ERG    57      -4.444  48.154   7.471  1.00  0.00     0.007 C 
ATOM   6214  C25 ERG    57      -4.953  47.723   6.190  1.00  0.00    -0.015 C 
ATOM   6215  C26 ERG    57      -6.440  48.197   6.214  1.00  0.00     0.010 C 
ATOM   6216  C27 ERG    57      -4.143  48.457   5.087  1.00  0.00     0.010 C 
ATOM   6217  C28 ERG    57      -4.805  47.368   8.747  1.00  0.00     0.014 C 
ATOM   6218  H3' ERG    57       1.761  45.539  18.314  1.00  0.00     0.210 HD
ATOM   6219  C1  ERG    58      40.941  23.524  14.985  1.00  0.00     0.017 C 
ATOM   6220  C2  ERG    58      40.297  23.566  16.385  1.00  0.00     0.033 C 
ATOM   6221  C3  ERG    58      41.186  22.875  17.447  1.00  0.00     0.122 C 
ATOM   6222  O3  ERG    58      40.582  23.049  18.721  1.00  0.00    -0.395 OA
ATOM   6223  C4  ERG    58      42.656  23.360  17.482  1.00  0.00     0.066 C 
ATOM   6224  C5  ERG    58      43.195  23.230  16.079  1.00  0.00    -0.069 A 
ATOM   6225  C6  ERG    58      44.229  22.440  15.744  1.00  0.00     0.004 A 
ATOM   6226  C7  ERG    58      44.689  22.265  14.492  1.00  0.00     0.004 A 
ATOM   6227  C8  ERG    58      44.179  22.891  13.418  1.00  0.00    -0.070 A 
ATOM   6228  C9  ERG    58      43.029  23.862  13.551  1.00  0.00     0.027 A 
ATOM   6229  C10 ERG    58      42.419  23.985  15.002  1.00  0.00    -0.013 A 
ATOM   6230  C11 ERG    58      43.553  25.162  12.875  1.00  0.00     0.011 C 
ATOM   6231  C12 ERG    58      44.125  25.029  11.437  1.00  0.00     0.011 C 
ATOM   6232  C13 ERG    58      45.168  23.928  11.325  1.00  0.00    -0.032 C 
ATOM   6233  C14 ERG    58      44.556  22.709  11.980  1.00  0.00     0.023 C 
ATOM   6234  C15 ERG    58      45.399  21.514  11.550  1.00  0.00     0.010 C 
ATOM   6235  C16 ERG    58      45.750  21.872  10.105  1.00  0.00     0.007 C 
ATOM   6236  C17 ERG    58      45.454  23.407   9.913  1.00  0.00     0.002 C 
ATOM   6237  C18 ERG    58      46.487  24.349  12.032  1.00  0.00     0.016 C 
ATOM   6238  C19 ERG    58      42.409  25.429  15.446  1.00  0.00     0.021 C 
ATOM   6239  C20 ERG    58      46.547  24.125   9.136  1.00  0.00     0.008 C 
ATOM   6240  C21 ERG    58      46.284  25.614   8.750  1.00  0.00     0.014 C 
ATOM   6241  C22 ERG    58      46.718  23.321   7.929  1.00  0.00    -0.026 C 
ATOM   6242  C23 ERG    58      47.903  23.048   7.439  1.00  0.00    -0.026 C 
ATOM   6243  C24 ERG    58      47.927  22.278   6.220  1.00  0.00     0.007 C 
ATOM   6244  C25 ERG    58      48.085  23.244   5.150  1.00  0.00    -0.015 C 
ATOM   6245  C26 ERG    58      48.358  22.744   3.790  1.00  0.00     0.010 C 
ATOM   6246  C27 ERG    58      47.040  24.457   5.310  1.00  0.00     0.010 C 
ATOM   6247  C28 ERG    58      49.113  21.359   6.346  1.00  0.00     0.014 C 
ATOM   6248  H3' ERG    58      40.173  23.915  18.619  1.00  0.00     0.210 HD
ATOM   6249  C1  ERG    59     -44.452 -11.137  15.175  1.00  0.00     0.017 C 
ATOM   6250  C2  ERG    59     -44.211 -11.450  16.652  1.00  0.00     0.033 C 
ATOM   6251  C3  ERG    59     -45.559 -11.771  17.314  1.00  0.00     0.122 C 
ATOM   6252  O3  ERG    59     -45.447 -11.861  18.721  1.00  0.00    -0.395 OA
ATOM   6253  C4  ERG    59     -46.268 -12.971  16.642  1.00  0.00     0.066 C 
ATOM   6254  C5  ERG    59     -46.430 -12.704  15.163  1.00  0.00    -0.069 A 
ATOM   6255  C6  ERG    59     -47.616 -12.713  14.538  1.00  0.00     0.004 A 
ATOM   6256  C7  ERG    59     -47.791 -12.346  13.245  1.00  0.00     0.004 A 
ATOM   6257  C8  ERG    59     -46.795 -11.919  12.426  1.00  0.00    -0.070 A 
ATOM   6258  C9  ERG    59     -45.362 -11.830  12.911  1.00  0.00     0.027 A 
ATOM   6259  C10 ERG    59     -45.161 -12.263  14.412  1.00  0.00    -0.013 A 
ATOM   6260  C11 ERG    59     -44.462 -12.493  11.809  1.00  0.00     0.011 C 
ATOM   6261  C12 ERG    59     -44.641 -11.962  10.364  1.00  0.00     0.011 C 
ATOM   6262  C13 ERG    59     -46.090 -12.078   9.908  1.00  0.00    -0.032 C 
ATOM   6263  C14 ERG    59     -46.877 -11.422  10.986  1.00  0.00     0.023 C 
ATOM   6264  C15 ERG    59     -48.219 -11.367  10.293  1.00  0.00     0.010 C 
ATOM   6265  C16 ERG    59     -48.012 -11.026   8.821  1.00  0.00     0.007 C 
ATOM   6266  C17 ERG    59     -46.491 -11.265   8.650  1.00  0.00     0.002 C 
ATOM   6267  C18 ERG    59     -46.654 -13.518   9.802  1.00  0.00     0.016 C 
ATOM   6268  C19 ERG    59     -44.245 -13.451  14.457  1.00  0.00     0.021 C 
ATOM   6269  C20 ERG    59     -46.220 -11.847   7.278  1.00  0.00     0.008 C 
ATOM   6270  C21 ERG    59     -44.807 -12.422   7.054  1.00  0.00     0.014 C 
ATOM   6271  C22 ERG    59     -46.437 -10.871   6.160  1.00  0.00    -0.026 C 
ATOM   6272  C23 ERG    59     -47.426 -11.001   5.286  1.00  0.00    -0.026 C 
ATOM   6273  C24 ERG    59     -47.601 -10.024   4.186  1.00  0.00     0.007 C 
ATOM   6274  C25 ERG    59     -47.879 -10.387   2.722  1.00  0.00    -0.015 C 
ATOM   6275  C26 ERG    59     -46.530 -10.397   2.011  1.00  0.00     0.010 C 
ATOM   6276  C27 ERG    59     -48.651 -11.717   2.612  1.00  0.00     0.010 C 
ATOM   6277  C28 ERG    59     -48.815  -9.434   4.623  1.00  0.00     0.014 C 
ATOM   6278  H3' ERG    59     -44.691 -11.310  18.934  1.00  0.00     0.210 HD
ATOM   6279  N   DYP    60      40.739 -20.317  19.698  1.00  0.00    -0.077 N 
ATOM   6280  P   DYP    60      44.619 -20.484  18.586  1.00  0.00     0.408 P 
ATOM   6281  C1  DYP    60      46.694 -19.787  17.072  1.00  0.00     0.216 C 
ATOM   6282  C2  DYP    60      47.148 -19.914  15.590  1.00  0.00     0.180 C 
ATOM   6283  C3  DYP    60      47.441 -21.400  15.210  1.00  0.00     0.213 C 
ATOM   6284  C11 DYP    60      42.382 -19.361  17.813  1.00  0.00     0.209 C 
ATOM   6285  O11 DYP    60      45.318 -20.153  17.203  1.00  0.00    -0.287 OA
ATOM   6286  C12 DYP    60      41.069 -19.258  18.640  1.00  0.00     0.262 C 
ATOM   6287  O12 DYP    60      43.519 -19.342  18.659  1.00  0.00    -0.288 OA
ATOM   6288  C13 DYP    60      41.750 -20.361  20.794  1.00  0.00     0.271 C 
ATOM   6289  O13 DYP    60      43.867 -21.761  18.509  1.00  0.00    -0.624 OA
ATOM   6290  C14 DYP    60      40.745 -21.681  19.072  1.00  0.00     0.271 C 
ATOM   6291  O14 DYP    60      45.532 -20.260  19.717  1.00  0.00    -0.624 OA
ATOM   6292  C15 DYP    60      39.423 -20.037  20.335  1.00  0.00     0.271 C 
ATOM   6293  C21 DYP    60      45.783 -18.163  14.679  1.00  0.00     0.259 C 
ATOM   6294  O21 DYP    60      46.221 -19.399  14.628  1.00  0.00    -0.312 OA
ATOM   6295  C22 DYP    60      45.406 -17.731  13.248  1.00  0.00     0.111 C 
ATOM   6296  O22 DYP    60      45.834 -17.384  15.610  1.00  0.00    -0.265 OA
ATOM   6297  C23 DYP    60      45.656 -18.844  12.206  1.00  0.00     0.010 C 
ATOM   6298  C24 DYP    60      45.524 -18.326  10.784  1.00  0.00     0.000 C 
ATOM   6299  C25 DYP    60      45.425 -19.465   9.748  1.00  0.00     0.000 C 
ATOM   6300  C26 DYP    60      46.680 -20.310   9.451  1.00  0.00     0.000 C 
ATOM   6301  C27 DYP    60      46.456 -21.450   8.414  1.00  0.00     0.004 C 
ATOM   6302  C28 DYP    60      45.693 -21.088   7.111  1.00  0.00     0.027 C 
ATOM   6303  C29 DYP    60      46.367 -20.064   6.225  1.00  0.00    -0.031 C 
ATOM   6304  C31 DYP    60      45.481 -22.341  14.353  1.00  0.00     0.258 C 
ATOM   6305  O31 DYP    60      46.290 -22.252  15.398  1.00  0.00    -0.319 OA
ATOM   6306  C32 DYP    60      44.206 -23.084  14.720  1.00  0.00     0.111 C 
ATOM   6307  O32 DYP    60      45.726 -21.940  13.229  1.00  0.00    -0.265 OA
ATOM   6308  C33 DYP    60      43.066 -22.548  13.835  1.00  0.00     0.010 C 
ATOM   6309  C34 DYP    60      42.660 -21.127  14.246  1.00  0.00     0.000 C 
ATOM   6310  C35 DYP    60      41.481 -20.551  13.451  1.00  0.00     0.000 C 
ATOM   6311  C36 DYP    60      41.695 -20.507  11.935  1.00  0.00     0.000 C 
ATOM   6312  C37 DYP    60      41.069 -19.246  11.314  1.00  0.00     0.004 C 
ATOM   6313  C38 DYP    60      40.629 -19.444   9.853  1.00  0.00     0.027 C 
ATOM   6314  C39 DYP    60      41.863 -19.463   8.989  1.00  0.00    -0.031 C 
ATOM   6315  C21 DYP    60      46.615 -20.138   4.898  1.00  0.00    -0.031 C 
ATOM   6316  C21 DYP    60      46.307 -21.242   3.916  1.00  0.00     0.027 C 
ATOM   6317  C21 DYP    60      45.349 -20.847   2.763  1.00  0.00     0.004 C 
ATOM   6318  C21 DYP    60      43.841 -20.756   3.099  1.00  0.00     0.000 C 
ATOM   6319  C21 DYP    60      42.932 -20.770   1.854  1.00  0.00    -0.000 C 
ATOM   6320  C21 DYP    60      43.113 -19.553   0.942  1.00  0.00    -0.005 C 
ATOM   6321  C21 DYP    60      42.097 -18.463   1.262  1.00  0.00     0.005 C 
ATOM   6322  C31 DYP    60      41.956 -19.309   7.657  1.00  0.00    -0.031 C 
ATOM   6323  C31 DYP    60      40.835 -19.077   6.680  1.00  0.00     0.027 C 
ATOM   6324  C31 DYP    60      40.574 -20.317   5.797  1.00  0.00     0.004 C 
ATOM   6325  C31 DYP    60      39.718 -20.016   4.555  1.00  0.00     0.000 C 
ATOM   6326  C31 DYP    60      39.341 -21.278   3.753  1.00  0.00    -0.000 C 
ATOM   6327  C31 DYP    60      38.843 -21.028   2.322  1.00  0.00    -0.005 C 
ATOM   6328  C31 DYP    60      38.375 -22.313   1.630  1.00  0.00     0.005 C 
ATOM   6329  N   DYP    61      -6.034 -49.879  17.676  1.00  0.00    -0.340 NA
ATOM   6330  P   DYP    61      -4.125 -47.247  19.006  1.00  0.00     0.408 P 
ATOM   6331  C1  DYP    61      -4.422 -46.617  16.540  1.00  0.00     0.216 C 
ATOM   6332  C2  DYP    61      -5.078 -45.480  15.842  1.00  0.00     0.180 C 
ATOM   6333  C3  DYP    61      -4.237 -45.049  14.676  1.00  0.00     0.213 C 
ATOM   6334  C11 DYP    61      -5.657 -48.123  20.385  1.00  0.00     0.181 C 
ATOM   6335  O11 DYP    61      -5.060 -46.705  17.891  1.00  0.00    -0.287 OA
ATOM   6336  C12 DYP    61      -5.832 -49.277  19.509  1.00  0.00     0.029 C 
ATOM   6337  O12 DYP    61      -4.426 -48.398  19.886  1.00  0.00    -0.290 OA
ATOM   6338  C13 DYP    61      -4.814 -50.408  16.958  1.00  0.00     0.170 C 
ATOM   6339  O13 DYP    61      -3.088 -47.837  18.159  1.00  0.00    -0.624 OA
ATOM   6340  C14 DYP    61      -6.228 -48.841  17.039  1.00  0.00     0.170 C 
ATOM   6341  O14 DYP    61      -4.037 -46.289  20.140  1.00  0.00    -0.624 OA
ATOM   6342  C15 DYP    61      -7.287 -50.963  17.055  1.00  0.00     0.000 C 
ATOM   6343  C21 DYP    61      -7.375 -45.434  15.511  1.00  0.00     0.259 C 
ATOM   6344  O21 DYP    61      -6.276 -46.075  15.399  1.00  0.00    -0.312 OA
ATOM   6345  C22 DYP    61      -8.431 -46.293  14.833  1.00  0.00     0.111 C 
ATOM   6346  O22 DYP    61      -7.548 -44.331  15.995  1.00  0.00    -0.265 OA
ATOM   6347  C23 DYP    61      -7.912 -47.106  13.613  1.00  0.00     0.010 C 
ATOM   6348  C24 DYP    61      -8.826 -46.934  12.384  1.00  0.00     0.000 C 
ATOM   6349  C25 DYP    61      -8.735 -45.582  11.649  1.00  0.00     0.000 C 
ATOM   6350  C26 DYP    61      -9.829 -45.420  10.572  1.00  0.00     0.000 C 
ATOM   6351  C27 DYP    61     -10.007 -46.518   9.501  1.00  0.00     0.004 C 
ATOM   6352  C28 DYP    61      -8.827 -46.729   8.551  1.00  0.00     0.027 C 
ATOM   6353  C29 DYP    61      -8.941 -45.784   7.401  1.00  0.00    -0.031 C 
ATOM   6354  C31 DYP    61      -3.408 -46.040  12.785  1.00  0.00     0.258 C 
ATOM   6355  O31 DYP    61      -4.243 -46.165  13.769  1.00  0.00    -0.319 OA
ATOM   6356  C32 DYP    61      -3.328 -47.225  11.912  1.00  0.00     0.111 C 
ATOM   6357  O32 DYP    61      -2.641 -45.142  12.600  1.00  0.00    -0.265 OA
ATOM   6358  C33 DYP    61      -3.167 -46.854  10.426  1.00  0.00     0.010 C 
ATOM   6359  C34 DYP    61      -3.123 -48.176   9.668  1.00  0.00     0.000 C 
ATOM   6360  C35 DYP    61      -2.993 -48.004   8.160  1.00  0.00     0.000 C 
ATOM   6361  C36 DYP    61      -4.163 -47.232   7.532  1.00  0.00     0.000 C 
ATOM   6362  C37 DYP    61      -4.406 -47.657   6.074  1.00  0.00     0.004 C 
ATOM   6363  C38 DYP    61      -3.248 -47.238   5.128  1.00  0.00     0.027 C 
ATOM   6364  C39 DYP    61      -3.134 -45.794   4.710  1.00  0.00    -0.031 C 
ATOM   6365  C21 DYP    61      -8.107 -44.791   7.176  1.00  0.00    -0.031 C 
ATOM   6366  C21 DYP    61      -6.906 -44.433   8.011  1.00  0.00     0.026 C 
ATOM   6367  C21 DYP    61      -5.662 -44.036   7.221  1.00  0.00    -0.000 C 
ATOM   6368  C21 DYP    61      -5.772 -42.577   7.184  1.00  0.00    -0.014 C 
ATOM   6369  C21 DYP    61      -5.606 -41.853   5.794  1.00  0.00     0.018 C 
ATOM   6370  C21 DYP    61      -5.375 -41.860   4.186  1.00  0.00    -0.005 C 
ATOM   6371  C21 DYP    61      -6.089 -40.910   3.071  1.00  0.00     0.005 C 
ATOM   6372  C31 DYP    61      -3.981 -45.168   3.891  1.00  0.00    -0.031 C 
ATOM   6373  C31 DYP    61      -5.159 -45.808   3.274  1.00  0.00     0.027 C 
ATOM   6374  C31 DYP    61      -5.428 -45.294   1.882  1.00  0.00     0.004 C 
ATOM   6375  C31 DYP    61      -6.569 -46.234   1.503  1.00  0.00     0.000 C 
ATOM   6376  C31 DYP    61      -8.004 -45.744   1.814  1.00  0.00    -0.000 C 
ATOM   6377  C31 DYP    61      -9.190 -46.209   0.939  1.00  0.00    -0.005 C 
ATOM   6378  C31 DYP    61     -10.583 -45.979   1.460  1.00  0.00     0.005 C 
ATOM   6379  N   YOP    62     -46.966 -20.037  20.928  1.00  0.00    -0.077 N 
ATOM   6380  P   YOP    62     -44.411 -22.804  18.351  1.00  0.00     0.408 P 
ATOM   6381  C1  YOP    62     -44.066 -21.499  16.113  1.00  0.00     0.216 C 
ATOM   6382  C2  YOP    62     -44.454 -21.347  14.591  1.00  0.00     0.180 C 
ATOM   6383  C3  YOP    62     -44.164 -22.662  13.829  1.00  0.00     0.213 C 
ATOM   6384  C11 YOP    62     -46.750 -21.926  19.206  1.00  0.00     0.208 C 
ATOM   6385  O11 YOP    62     -44.937 -22.336  16.896  1.00  0.00    -0.287 OA
ATOM   6386  C12 YOP    62     -47.413 -21.413  20.499  1.00  0.00     0.256 C 
ATOM   6387  O12 YOP    62     -45.329 -21.880  19.309  1.00  0.00    -0.288 OA
ATOM   6388  O13 YOP    62     -44.781 -24.224  18.534  1.00  0.00    -0.624 OA
ATOM   6389  O14 YOP    62     -43.001 -22.388  18.506  1.00  0.00    -0.624 OA
ATOM   6390  C21 YOP    62     -46.250 -19.910  14.776  1.00  0.00     0.259 C 
ATOM   6391  O21 YOP    62     -45.834 -21.055  14.323  1.00  0.00    -0.312 OA
ATOM   6392  C22 YOP    62     -47.648 -19.643  14.222  1.00  0.00     0.111 C 
ATOM   6393  O22 YOP    62     -45.605 -19.111  15.429  1.00  0.00    -0.265 OA
ATOM   6394  C23 YOP    62     -47.573 -18.394  13.334  1.00  0.00     0.010 C 
ATOM   6395  C24 YOP    62     -47.095 -18.735  11.907  1.00  0.00     0.000 C 
ATOM   6396  C25 YOP    62     -46.994 -17.457  11.058  1.00  0.00     0.000 C 
ATOM   6397  C26 YOP    62     -46.426 -17.576   9.622  1.00  0.00     0.000 C 
ATOM   6398  C27 YOP    62     -47.075 -18.612   8.670  1.00  0.00     0.004 C 
ATOM   6399  C28 YOP    62     -46.654 -18.505   7.173  1.00  0.00     0.027 C 
ATOM   6400  C29 YOP    62     -45.167 -18.656   6.911  1.00  0.00    -0.031 C 
ATOM   6401  C31 YOP    62     -43.915 -21.932  11.598  1.00  0.00     0.258 C 
ATOM   6402  O31 YOP    62     -44.614 -22.656  12.460  1.00  0.00    -0.319 OA
ATOM   6403  C32 YOP    62     -44.637 -21.944  10.253  1.00  0.00     0.111 C 
ATOM   6404  O32 YOP    62     -42.889 -21.322  11.836  1.00  0.00    -0.265 OA
ATOM   6405  C33 YOP    62     -43.685 -21.913   9.031  1.00  0.00     0.010 C 
ATOM   6406  C34 YOP    62     -42.857 -23.188   8.765  1.00  0.00     0.000 C 
ATOM   6407  C35 YOP    62     -43.630 -24.525   8.767  1.00  0.00     0.000 C 
ATOM   6408  C36 YOP    62     -44.926 -24.505   7.939  1.00  0.00     0.000 C 
ATOM   6409  C37 YOP    62     -44.635 -24.410   6.433  1.00  0.00     0.004 C 
ATOM   6410  C38 YOP    62     -45.787 -23.828   5.593  1.00  0.00     0.027 C 
ATOM   6411  C39 YOP    62     -47.018 -24.696   5.565  1.00  0.00    -0.031 C 
ATOM   6412  C21 YOP    62     -44.557 -18.841   5.732  1.00  0.00    -0.031 C 
ATOM   6413  C21 YOP    62     -45.202 -18.947   4.417  1.00  0.00     0.027 C 
ATOM   6414  C21 YOP    62     -45.113 -20.456   4.205  1.00  0.00     0.004 C 
ATOM   6415  C21 YOP    62     -44.033 -21.102   3.269  1.00  0.00     0.000 C 
ATOM   6416  C21 YOP    62     -43.752 -20.475   1.871  1.00  0.00     0.000 C 
ATOM   6417  C21 YOP    62     -42.807 -21.161   0.850  1.00  0.00     0.000 C 
ATOM   6418  C21 YOP    62     -43.318 -22.437   0.133  1.00  0.00    -0.000 C 
ATOM   6419  C21 YOP    62     -44.622 -22.231  -0.566  1.00  0.00    -0.005 C 
ATOM   6420  C21 YOP    62     -45.184 -23.333  -1.423  1.00  0.00     0.005 C 
ATOM   6421  C31 YOP    62     -47.453 -25.466   4.553  1.00  0.00    -0.031 C 
ATOM   6422  C31 YOP    62     -46.828 -25.671   3.184  1.00  0.00     0.027 C 
ATOM   6423  C31 YOP    62     -47.278 -24.784   2.001  1.00  0.00     0.004 C 
ATOM   6424  C31 YOP    62     -48.806 -24.732   1.876  1.00  0.00     0.000 C 
ATOM   6425  C31 YOP    62     -49.403 -23.981   0.655  1.00  0.00    -0.000 C 
ATOM   6426  C31 YOP    62     -49.341 -22.504   0.733  1.00  0.00    -0.005 C 
ATOM   6427  C31 YOP    62     -50.218 -21.643  -0.136  1.00  0.00     0.005 C 
ATOM   6428  HN1 YOP    62     -47.433 -19.341  20.290  1.00  0.00     0.274 HD
ATOM   6429  HN2 YOP    62     -47.189 -19.795  21.914  1.00  0.00     0.274 HD
ATOM   6430  HN3 YOP    62     -45.940 -20.028  20.731  1.00  0.00     0.274 HD
ATOM   6431  N   POP    63      47.328  17.900  16.698  1.00  0.00    -0.077 N 
ATOM   6432  P   POP    63      48.551  15.740  19.431  1.00  0.00     0.408 P 
ATOM   6433  C1  POP    63      47.331  13.990  18.020  1.00  0.00     0.216 C 
ATOM   6434  C2  POP    63      46.457  14.091  16.772  1.00  0.00     0.180 C 
ATOM   6435  C3  POP    63      45.016  14.467  17.189  1.00  0.00     0.213 C 
ATOM   6436  C11 POP    63      46.765  17.536  19.440  1.00  0.00     0.208 C 
ATOM   6437  O11 POP    63      47.256  15.209  18.713  1.00  0.00    -0.287 OA
ATOM   6438  C12 POP    63      47.098  18.203  18.096  1.00  0.00     0.256 C 
ATOM   6439  O12 POP    63      47.929  17.012  20.073  1.00  0.00    -0.288 OA
ATOM   6440  O13 POP    63      49.023  14.777  20.442  1.00  0.00    -0.624 OA
ATOM   6441  O14 POP    63      49.429  16.234  18.351  1.00  0.00    -0.624 OA
ATOM   6442  C21 POP    63      47.919  14.688  15.073  1.00  0.00     0.259 C 
ATOM   6443  O21 POP    63      46.965  15.110  15.880  1.00  0.00    -0.312 OA
ATOM   6444  C22 POP    63      48.306  15.850  14.159  1.00  0.00     0.111 C 
ATOM   6445  O22 POP    63      48.386  13.567  15.033  1.00  0.00    -0.265 OA
ATOM   6446  C23 POP    63      49.335  15.379  13.118  1.00  0.00     0.010 C 
ATOM   6447  C24 POP    63      50.083  16.521  12.433  1.00  0.00     0.000 C 
ATOM   6448  C25 POP    63      50.878  15.995  11.225  1.00  0.00     0.000 C 
ATOM   6449  C26 POP    63      50.131  15.873   9.890  1.00  0.00     0.000 C 
ATOM   6450  C27 POP    63      49.965  17.244   9.221  1.00  0.00     0.004 C 
ATOM   6451  C28 POP    63      48.780  17.354   8.250  1.00  0.00     0.027 C 
ATOM   6452  C29 POP    63      48.781  16.409   7.080  1.00  0.00    -0.031 C 
ATOM   6453  C31 POP    63      44.310  15.982  15.598  1.00  0.00     0.258 C 
ATOM   6454  O31 POP    63      44.228  14.736  16.024  1.00  0.00    -0.319 OA
ATOM   6455  C32 POP    63      43.999  15.995  14.141  1.00  0.00     0.111 C 
ATOM   6456  O32 POP    63      44.618  16.964  16.256  1.00  0.00    -0.265 OA
ATOM   6457  C33 POP    63      44.350  17.408  13.578  1.00  0.00     0.010 C 
ATOM   6458  C34 POP    63      44.428  17.562  12.059  1.00  0.00     0.000 C 
ATOM   6459  C35 POP    63      45.334  16.583  11.304  1.00  0.00     0.000 C 
ATOM   6460  C36 POP    63      45.401  16.752   9.786  1.00  0.00     0.000 C 
ATOM   6461  C37 POP    63      44.406  16.062   8.924  1.00  0.00     0.000 C 
ATOM   6462  C38 POP    63      44.101  16.902   7.659  1.00  0.00     0.000 C 
ATOM   6463  C39 POP    63      42.777  16.776   6.927  1.00  0.00     0.000 C 
ATOM   6464  C21 POP    63      48.614  16.716   5.782  1.00  0.00    -0.031 C 
ATOM   6465  C21 POP    63      48.392  18.075   5.167  1.00  0.00     0.027 C 
ATOM   6466  C21 POP    63      49.568  18.359   4.193  1.00  0.00     0.004 C 
ATOM   6467  C21 POP    63      49.701  19.760   3.606  1.00  0.00     0.000 C 
ATOM   6468  C21 POP    63      48.504  20.224   2.682  1.00  0.00     0.000 C 
ATOM   6469  C21 POP    63      47.020  20.374   3.296  1.00  0.00     0.000 C 
ATOM   6470  C21 POP    63      46.028  21.548   2.929  1.00  0.00    -0.000 C 
ATOM   6471  C21 POP    63      46.227  21.998   1.488  1.00  0.00    -0.005 C 
ATOM   6472  C21 POP    63      45.078  22.895   1.128  1.00  0.00     0.005 C 
ATOM   6473  C31 POP    63      42.192  17.819   5.979  1.00  0.00     0.000 C 
ATOM   6474  C31 POP    63      43.191  18.007   4.790  1.00  0.00     0.000 C 
ATOM   6475  C31 POP    63      44.004  16.835   4.078  1.00  0.00     0.000 C 
ATOM   6476  C31 POP    63      45.038  17.087   3.075  1.00  0.00     0.000 C 
ATOM   6477  C31 POP    63      45.690  15.748   2.687  1.00  0.00    -0.000 C 
ATOM   6478  C31 POP    63      46.879  16.083   1.820  1.00  0.00    -0.005 C 
ATOM   6479  C31 POP    63      46.474  16.837   0.548  1.00  0.00     0.005 C 
ATOM   6480  HN1 POP    63      46.395  17.475  16.549  1.00  0.00     0.274 HD
ATOM   6481  HN2 POP    63      47.474  18.869  16.299  1.00  0.00     0.274 HD
ATOM   6482  HN3 POP    63      48.226  17.358  16.760  1.00  0.00     0.274 HD
ATOM   6483  C1  ERG    64     -29.741  43.897  15.938  1.00  0.00     0.017 C 
ATOM   6484  C2  ERG    64     -29.227  43.521  17.344  1.00  0.00     0.033 C 
ATOM   6485  C3  ERG    64     -27.909  42.732  17.313  1.00  0.00     0.122 C 
ATOM   6486  O3  ERG    64     -27.431  42.564  18.645  1.00  0.00    -0.395 OA
ATOM   6487  C4  ERG    64     -26.858  43.412  16.407  1.00  0.00     0.066 C 
ATOM   6488  C5  ERG    64     -27.355  44.011  15.123  1.00  0.00    -0.069 C 
ATOM   6489  C6  ERG    64     -26.652  43.856  13.993  1.00  0.00     0.004 C 
ATOM   6490  C7  ERG    64     -27.118  44.201  12.779  1.00  0.00     0.004 C 
ATOM   6491  C8  ERG    64     -28.350  44.705  12.565  1.00  0.00    -0.070 C 
ATOM   6492  C9  ERG    64     -29.304  45.063  13.702  1.00  0.00     0.027 C 
ATOM   6493  C10 ERG    64     -28.728  44.739  15.125  1.00  0.00    -0.013 C 
ATOM   6494  C11 ERG    64     -29.964  46.496  13.560  1.00  0.00     0.011 C 
ATOM   6495  C12 ERG    64     -30.419  46.886  12.138  1.00  0.00     0.011 C 
ATOM   6496  C13 ERG    64     -29.385  46.461  11.127  1.00  0.00    -0.032 C 
ATOM   6497  C14 ERG    64     -28.963  45.039  11.221  1.00  0.00     0.023 C 
ATOM   6498  C15 ERG    64     -28.204  44.706   9.904  1.00  0.00     0.010 C 
ATOM   6499  C16 ERG    64     -28.695  45.732   8.850  1.00  0.00     0.007 C 
ATOM   6500  C17 ERG    64     -29.724  46.655   9.609  1.00  0.00     0.002 C 
ATOM   6501  C18 ERG    64     -28.189  47.087  11.618  1.00  0.00     0.016 C 
ATOM   6502  C19 ERG    64     -28.497  46.094  15.854  1.00  0.00     0.021 C 
ATOM   6503  C20 ERG    64     -30.398  47.988   8.998  1.00  0.00     0.008 C 
ATOM   6504  C21 ERG    64     -30.994  47.790   7.630  1.00  0.00     0.014 C 
ATOM   6505  C22 ERG    64     -29.598  49.111   8.830  1.00  0.00    -0.026 C 
ATOM   6506  C23 ERG    64     -29.471  50.488   8.812  1.00  0.00    -0.025 C 
ATOM   6507  C24 ERG    64     -28.078  51.394   8.615  1.00  0.00     0.019 C 
ATOM   6508  C25 ERG    64     -28.519  52.517   8.044  1.00  0.00    -0.014 C 
ATOM   6509  C26 ERG    64     -29.215  53.185   9.238  1.00  0.00     0.010 C 
ATOM   6510  C27 ERG    64     -27.068  52.687   7.475  1.00  0.00     0.010 C 
ATOM   6511  C28 ERG    64     -26.713  51.773   9.668  1.00  0.00     0.000 C 
ATOM   6512  H3' ERG    64     -27.372  43.457  19.028  1.00  0.00     0.210 HD
ATOM   6513  C1  ERG    65      14.163 -50.949  15.249  1.00  0.00     0.017 C 
ATOM   6514  C2  ERG    65      13.913 -51.007  16.774  1.00  0.00     0.033 C 
ATOM   6515  C3  ERG    65      13.332 -49.681  17.303  1.00  0.00     0.122 C 
ATOM   6516  O3  ERG    65      13.072 -49.776  18.695  1.00  0.00    -0.395 OA
ATOM   6517  C4  ERG    65      12.028 -49.306  16.570  1.00  0.00     0.066 C 
ATOM   6518  C5  ERG    65      12.170 -49.331  15.061  1.00  0.00    -0.069 C 
ATOM   6519  C6  ERG    65      11.752 -48.307  14.283  1.00  0.00     0.004 C 
ATOM   6520  C7  ERG    65      11.927 -48.244  12.946  1.00  0.00     0.004 C 
ATOM   6521  C8  ERG    65      12.615 -49.159  12.239  1.00  0.00    -0.070 C 
ATOM   6522  C9  ERG    65      13.238 -50.382  12.917  1.00  0.00     0.027 C 
ATOM   6523  C10 ERG    65      12.882 -50.570  14.441  1.00  0.00    -0.013 C 
ATOM   6524  C11 ERG    65      13.130 -51.679  12.049  1.00  0.00     0.011 C 
ATOM   6525  C12 ERG    65      13.432 -51.471  10.553  1.00  0.00     0.011 C 
ATOM   6526  C13 ERG    65      12.603 -50.317   9.963  1.00  0.00    -0.032 C 
ATOM   6527  C14 ERG    65      12.914 -49.053  10.762  1.00  0.00     0.023 C 
ATOM   6528  C15 ERG    65      12.332 -47.879   9.954  1.00  0.00     0.010 C 
ATOM   6529  C16 ERG    65      12.545 -48.345   8.510  1.00  0.00     0.007 C 
ATOM   6530  C17 ERG    65      12.965 -49.855   8.534  1.00  0.00     0.002 C 
ATOM   6531  C18 ERG    65      11.084 -50.616  10.063  1.00  0.00     0.016 C 
ATOM   6532  C19 ERG    65      11.843 -51.719  14.573  1.00  0.00     0.021 C 
ATOM   6533  C20 ERG    65      12.419 -50.665   7.336  1.00  0.00     0.008 C 
ATOM   6534  C21 ERG    65      13.079 -52.074   7.309  1.00  0.00     0.014 C 
ATOM   6535  C22 ERG    65      12.644 -49.874   6.039  1.00  0.00    -0.026 C 
ATOM   6536  C23 ERG    65      11.707 -49.346   5.214  1.00  0.00    -0.026 C 
ATOM   6537  C24 ERG    65      12.012 -48.558   3.929  1.00  0.00     0.007 C 
ATOM   6538  C25 ERG    65      11.120 -48.993   2.770  1.00  0.00    -0.015 C 
ATOM   6539  C26 ERG    65      11.240 -48.045   1.597  1.00  0.00     0.010 C 
ATOM   6540  C27 ERG    65      11.441 -50.400   2.266  1.00  0.00     0.010 C 
ATOM   6541  C28 ERG    65      11.812 -47.022   4.078  1.00  0.00     0.014 C 
ATOM   6542  H3' ERG    65      12.745 -50.663  18.865  1.00  0.00     0.210 HD
ATOM   6543  N   POP    66     -41.395 -33.780  19.330  1.00  0.00    -0.063 N 
ATOM   6544  P   POP    66     -38.123 -36.603  18.002  1.00  0.00     0.408 P 
ATOM   6545  C1  POP    66     -36.909 -35.866  15.841  1.00  0.00     0.216 C 
ATOM   6546  C2  POP    66     -37.112 -35.841  14.305  1.00  0.00     0.180 C 
ATOM   6547  C3  POP    66     -36.762 -37.220  13.656  1.00  0.00     0.213 C 
ATOM   6548  C11 POP    66     -39.275 -34.216  18.121  1.00  0.00     0.225 C 
ATOM   6549  O11 POP    66     -37.836 -36.767  16.462  1.00  0.00    -0.287 OA
ATOM   6550  C12 POP    66     -39.980 -34.232  19.510  1.00  0.00     0.307 C 
ATOM   6551  O12 POP    66     -38.108 -35.031  18.132  1.00  0.00    -0.287 OA
ATOM   6552  C13 POP    66     -39.174 -33.389  20.514  1.00  0.00     0.206 C 
ATOM   6553  O13 POP    66     -39.514 -37.057  18.253  1.00  0.00    -0.624 OA
ATOM   6554  O13 POP    66     -39.713 -32.347  20.989  1.00  0.00    -0.646 OA
ATOM   6555  O13 POP    66     -38.013 -33.764  20.809  1.00  0.00    -0.646 OA
ATOM   6556  O14 POP    66     -37.011 -37.222  18.746  1.00  0.00    -0.624 OA
ATOM   6557  C21 POP    66     -38.888 -34.280  14.273  1.00  0.00     0.259 C 
ATOM   6558  O21 POP    66     -38.464 -35.486  13.962  1.00  0.00    -0.312 OA
ATOM   6559  C22 POP    66     -40.376 -34.197  13.905  1.00  0.00     0.111 C 
ATOM   6560  O22 POP    66     -38.241 -33.367  14.755  1.00  0.00    -0.265 OA
ATOM   6561  C23 POP    66     -40.894 -32.738  13.819  1.00  0.00     0.010 C 
ATOM   6562  C24 POP    66     -40.249 -31.953  12.670  1.00  0.00     0.000 C 
ATOM   6563  C25 POP    66     -40.864 -32.335  11.320  1.00  0.00     0.000 C 
ATOM   6564  C26 POP    66     -40.359 -31.504  10.130  1.00  0.00     0.000 C 
ATOM   6565  C27 POP    66     -38.897 -31.765   9.765  1.00  0.00     0.004 C 
ATOM   6566  C28 POP    66     -38.577 -33.227   9.374  1.00  0.00     0.027 C 
ATOM   6567  C29 POP    66     -39.371 -33.849   8.237  1.00  0.00    -0.031 C 
ATOM   6568  C31 POP    66     -36.738 -36.539  11.384  1.00  0.00     0.258 C 
ATOM   6569  O31 POP    66     -37.227 -37.356  12.305  1.00  0.00    -0.319 OA
ATOM   6570  C32 POP    66     -37.375 -36.845  10.020  1.00  0.00     0.111 C 
ATOM   6571  O32 POP    66     -35.881 -35.692  11.556  1.00  0.00    -0.265 OA
ATOM   6572  C33 POP    66     -38.438 -37.977  10.046  1.00  0.00     0.010 C 
ATOM   6573  C34 POP    66     -39.508 -37.854   8.951  1.00  0.00     0.000 C 
ATOM   6574  C35 POP    66     -40.352 -39.134   8.730  1.00  0.00     0.000 C 
ATOM   6575  C36 POP    66     -41.434 -38.963   7.644  1.00  0.00     0.000 C 
ATOM   6576  C37 POP    66     -42.659 -38.147   8.087  1.00  0.00     0.000 C 
ATOM   6577  C38 POP    66     -43.227 -37.209   7.007  1.00  0.00     0.000 C 
ATOM   6578  C39 POP    66     -43.608 -37.856   5.665  1.00  0.00     0.000 C 
ATOM   6579  C21 POP    66     -38.968 -34.010   6.968  1.00  0.00    -0.031 C 
ATOM   6580  C21 POP    66     -37.635 -33.593   6.465  1.00  0.00     0.027 C 
ATOM   6581  C21 POP    66     -36.900 -34.901   6.293  1.00  0.00     0.004 C 
ATOM   6582  C21 POP    66     -37.474 -35.929   5.250  1.00  0.00     0.000 C 
ATOM   6583  C21 POP    66     -36.652 -37.151   4.759  1.00  0.00     0.000 C 
ATOM   6584  C21 POP    66     -36.886 -37.850   3.456  1.00  0.00     0.000 C 
ATOM   6585  C21 POP    66     -35.570 -38.486   2.909  1.00  0.00    -0.000 C 
ATOM   6586  C21 POP    66     -36.007 -39.637   2.037  1.00  0.00    -0.005 C 
ATOM   6587  C21 POP    66     -36.907 -39.153   0.903  1.00  0.00     0.005 C 
ATOM   6588  C31 POP    66     -43.841 -36.801   4.576  1.00  0.00     0.000 C 
ATOM   6589  C31 POP    66     -42.514 -36.250   4.028  1.00  0.00     0.000 C 
ATOM   6590  C31 POP    66     -42.729 -35.099   3.037  1.00  0.00     0.000 C 
ATOM   6591  C31 POP    66     -41.442 -34.480   2.459  1.00  0.00     0.000 C 
ATOM   6592  C31 POP    66     -40.758 -35.426   1.474  1.00  0.00    -0.000 C 
ATOM   6593  C31 POP    66     -39.409 -34.934   1.016  1.00  0.00    -0.005 C 
ATOM   6594  C31 POP    66     -39.362 -33.481   0.699  1.00  0.00     0.005 C 
ATOM   6595  HN1 POP    66     -41.862 -34.423  18.662  1.00  0.00     0.275 HD
ATOM   6596  HN2 POP    66     -41.824 -33.773  20.277  1.00  0.00     0.275 HD
ATOM   6597  HN3 POP    66     -41.373 -32.802  18.984  1.00  0.00     0.275 HD
ATOM   6598  N   DYP    67     -54.718   0.201  18.663  1.00  0.00    -0.077 N 
ATOM   6599  P   DYP    67     -51.481   2.676  19.355  1.00  0.00     0.408 P 
ATOM   6600  C1  DYP    67     -50.120   2.956  17.246  1.00  0.00     0.216 C 
ATOM   6601  C2  DYP    67     -50.229   2.877  15.713  1.00  0.00     0.180 C 
ATOM   6602  C3  DYP    67     -50.201   1.421  15.191  1.00  0.00     0.213 C 
ATOM   6603  C11 DYP    67     -53.939   2.628  18.497  1.00  0.00     0.209 C 
ATOM   6604  O11 DYP    67     -51.250   2.307  17.842  1.00  0.00    -0.287 OA
ATOM   6605  C12 DYP    67     -54.282   1.312  17.772  1.00  0.00     0.262 C 
ATOM   6606  O12 DYP    67     -53.015   2.384  19.544  1.00  0.00    -0.288 OA
ATOM   6607  C13 DYP    67     -55.483  -0.741  17.922  1.00  0.00     0.271 C 
ATOM   6608  O13 DYP    67     -50.711   1.728  20.189  1.00  0.00    -0.624 OA
ATOM   6609  C14 DYP    67     -55.595   0.830  19.645  1.00  0.00     0.271 C 
ATOM   6610  O14 DYP    67     -51.273   4.129  19.521  1.00  0.00    -0.624 OA
ATOM   6611  C15 DYP    67     -53.555  -0.529  19.251  1.00  0.00     0.271 C 
ATOM   6612  C21 DYP    67     -51.328   4.659  14.765  1.00  0.00     0.259 C 
ATOM   6613  O21 DYP    67     -51.476   3.463  15.274  1.00  0.00    -0.312 OA
ATOM   6614  C22 DYP    67     -52.545   4.974  13.897  1.00  0.00     0.111 C 
ATOM   6615  O22 DYP    67     -50.326   5.352  14.868  1.00  0.00    -0.265 OA
ATOM   6616  C23 DYP    67     -52.170   6.112  12.959  1.00  0.00     0.010 C 
ATOM   6617  C24 DYP    67     -51.369   5.768  11.732  1.00  0.00     0.000 C 
ATOM   6618  C25 DYP    67     -52.168   5.931  10.445  1.00  0.00     0.000 C 
ATOM   6619  C26 DYP    67     -51.574   5.059   9.338  1.00  0.00     0.000 C 
ATOM   6620  C27 DYP    67     -52.499   4.772   8.143  1.00  0.00     0.004 C 
ATOM   6621  C28 DYP    67     -53.018   6.060   7.483  1.00  0.00     0.027 C 
ATOM   6622  C29 DYP    67     -54.287   6.004   6.679  1.00  0.00    -0.031 C 
ATOM   6623  C31 DYP    67     -51.791   0.992  13.482  1.00  0.00     0.258 C 
ATOM   6624  O31 DYP    67     -50.559   1.362  13.800  1.00  0.00    -0.319 OA
ATOM   6625  C32 DYP    67     -51.936   1.031  11.967  1.00  0.00     0.111 C 
ATOM   6626  O32 DYP    67     -52.660   0.625  14.254  1.00  0.00    -0.265 OA
ATOM   6627  C33 DYP    67     -51.674  -0.359  11.370  1.00  0.00     0.010 C 
ATOM   6628  C34 DYP    67     -51.973  -0.389   9.868  1.00  0.00     0.000 C 
ATOM   6629  C35 DYP    67     -51.313   0.754   9.077  1.00  0.00     0.000 C 
ATOM   6630  C36 DYP    67     -51.436   0.629   7.556  1.00  0.00     0.000 C 
ATOM   6631  C37 DYP    67     -50.218   1.265   6.863  1.00  0.00     0.004 C 
ATOM   6632  C38 DYP    67     -48.929   0.414   6.777  1.00  0.00     0.027 C 
ATOM   6633  C39 DYP    67     -49.079  -0.886   6.022  1.00  0.00    -0.031 C 
ATOM   6634  C21 DYP    67     -54.399   5.691   5.379  1.00  0.00    -0.031 C 
ATOM   6635  C21 DYP    67     -53.241   5.326   4.483  1.00  0.00     0.027 C 
ATOM   6636  C21 DYP    67     -53.556   4.216   3.477  1.00  0.00     0.004 C 
ATOM   6637  C21 DYP    67     -52.283   3.711   2.775  1.00  0.00     0.000 C 
ATOM   6638  C21 DYP    67     -52.276   2.189   2.611  1.00  0.00    -0.000 C 
ATOM   6639  C21 DYP    67     -51.113   1.604   1.789  1.00  0.00    -0.005 C 
ATOM   6640  C21 DYP    67     -50.848   2.208   0.407  1.00  0.00     0.005 C 
ATOM   6641  C31 DYP    67     -48.892  -1.034   4.700  1.00  0.00    -0.031 C 
ATOM   6642  C31 DYP    67     -48.506   0.050   3.723  1.00  0.00     0.027 C 
ATOM   6643  C31 DYP    67     -46.991   0.342   3.675  1.00  0.00     0.004 C 
ATOM   6644  C31 DYP    67     -46.436   0.962   2.376  1.00  0.00     0.000 C 
ATOM   6645  C31 DYP    67     -46.876   2.416   2.114  1.00  0.00    -0.000 C 
ATOM   6646  C31 DYP    67     -45.972   3.197   1.144  1.00  0.00    -0.005 C 
ATOM   6647  C31 DYP    67     -45.629   2.559  -0.200  1.00  0.00     0.005 C 
ATOM   6648  N   YOP    68      41.922  33.804  20.848  1.00  0.00    -0.077 N 
ATOM   6649  P   YOP    68      43.891  31.635  17.200  1.00  0.00     0.408 P 
ATOM   6650  C1  YOP    68      42.543  29.643  16.169  1.00  0.00     0.216 C 
ATOM   6651  C2  YOP    68      43.291  29.399  14.836  1.00  0.00     0.180 C 
ATOM   6652  C3  YOP    68      42.576  28.326  14.041  1.00  0.00     0.213 C 
ATOM   6653  C11 YOP    68      41.852  32.337  18.703  1.00  0.00     0.209 C 
ATOM   6654  O11 YOP    68      42.591  31.011  16.549  1.00  0.00    -0.287 OA
ATOM   6655  C12 YOP    68      41.319  33.532  19.508  1.00  0.00     0.262 C 
ATOM   6656  O12 YOP    68      43.252  32.443  18.413  1.00  0.00    -0.288 OA
ATOM   6657  C13 YOP    68      43.189  34.296  20.436  1.00  0.00     0.271 C 
ATOM   6658  O13 YOP    68      44.519  32.596  16.270  1.00  0.00    -0.624 OA
ATOM   6659  C14 YOP    68      41.228  34.811  21.677  1.00  0.00     0.271 C 
ATOM   6660  O14 YOP    68      44.701  30.520  17.737  1.00  0.00    -0.624 OA
ATOM   6661  C15 YOP    68      42.072  32.603  21.692  1.00  0.00     0.271 C 
ATOM   6662  C21 YOP    68      44.411  30.794  13.386  1.00  0.00     0.259 C 
ATOM   6663  O21 YOP    68      43.295  30.573  14.028  1.00  0.00    -0.312 OA
ATOM   6664  C22 YOP    68      44.251  32.084  12.607  1.00  0.00     0.111 C 
ATOM   6665  O22 YOP    68      45.389  30.066  13.334  1.00  0.00    -0.265 OA
ATOM   6666  C23 YOP    68      45.321  32.217  11.505  1.00  0.00     0.010 C 
ATOM   6667  C24 YOP    68      44.839  33.262  10.489  1.00  0.00     0.000 C 
ATOM   6668  C25 YOP    68      45.795  33.636   9.341  1.00  0.00     0.000 C 
ATOM   6669  C26 YOP    68      45.083  34.397   8.195  1.00  0.00     0.000 C 
ATOM   6670  C27 YOP    68      44.149  33.532   7.324  1.00  0.00     0.004 C 
ATOM   6671  C28 YOP    68      44.898  32.641   6.319  1.00  0.00     0.027 C 
ATOM   6672  C29 YOP    68      45.584  33.379   5.201  1.00  0.00    -0.031 C 
ATOM   6673  C31 YOP    68      42.624  28.448  11.757  1.00  0.00     0.258 C 
ATOM   6674  O31 YOP    68      43.253  28.023  12.817  1.00  0.00    -0.319 OA
ATOM   6675  C32 YOP    68      43.556  28.359  10.570  1.00  0.00     0.111 C 
ATOM   6676  O32 YOP    68      41.484  28.878  11.721  1.00  0.00    -0.265 OA
ATOM   6677  C33 YOP    68      42.768  28.782   9.337  1.00  0.00     0.010 C 
ATOM   6678  C34 YOP    68      43.566  28.719   8.035  1.00  0.00     0.000 C 
ATOM   6679  C35 YOP    68      42.646  28.410   6.843  1.00  0.00     0.000 C 
ATOM   6680  C36 YOP    68      41.470  29.390   6.736  1.00  0.00     0.000 C 
ATOM   6681  C37 YOP    68      41.951  30.814   6.412  1.00  0.00     0.004 C 
ATOM   6682  C38 YOP    68      40.809  31.839   6.320  1.00  0.00     0.027 C 
ATOM   6683  C39 YOP    68      39.954  31.464   5.136  1.00  0.00    -0.031 C 
ATOM   6684  C21 YOP    68      46.868  33.256   4.895  1.00  0.00    -0.031 C 
ATOM   6685  C21 YOP    68      47.780  32.349   5.649  1.00  0.00     0.027 C 
ATOM   6686  C21 YOP    68      47.602  30.959   5.037  1.00  0.00     0.004 C 
ATOM   6687  C21 YOP    68      46.527  30.005   5.384  1.00  0.00     0.000 C 
ATOM   6688  C21 YOP    68      46.651  28.619   4.739  1.00  0.00     0.000 C 
ATOM   6689  C21 YOP    68      46.526  28.533   3.205  1.00  0.00     0.000 C 
ATOM   6690  C21 YOP    68      46.160  27.228   2.518  1.00  0.00    -0.000 C 
ATOM   6691  C21 YOP    68      45.730  27.600   1.092  1.00  0.00    -0.005 C 
ATOM   6692  C21 YOP    68      46.784  28.297   0.183  1.00  0.00     0.005 C 
ATOM   6693  C31 YOP    68      40.028  31.956   3.887  1.00  0.00    -0.031 C 
ATOM   6694  C31 YOP    68      40.994  33.011   3.393  1.00  0.00     0.027 C 
ATOM   6695  C31 YOP    68      42.179  32.477   2.559  1.00  0.00     0.004 C 
ATOM   6696  C31 YOP    68      43.245  33.530   2.176  1.00  0.00     0.000 C 
ATOM   6697  C31 YOP    68      43.067  34.012   0.725  1.00  0.00    -0.000 C 
ATOM   6698  C31 YOP    68      44.241  34.814   0.123  1.00  0.00    -0.005 C 
ATOM   6699  C31 YOP    68      44.798  35.904   1.021  1.00  0.00     0.005 C 
ATOM   6700  C1  ERG    69     -51.909  10.238  15.113  1.00  0.00     0.017 C 
ATOM   6701  C2  ERG    69     -51.824   9.859  16.597  1.00  0.00     0.033 C 
ATOM   6702  C3  ERG    69     -53.022  10.443  17.351  1.00  0.00     0.122 C 
ATOM   6703  O3  ERG    69     -53.020   9.947  18.683  1.00  0.00    -0.395 OA
ATOM   6704  C4  ERG    69     -54.369  10.102  16.674  1.00  0.00     0.066 C 
ATOM   6705  C5  ERG    69     -54.388  10.444  15.196  1.00  0.00    -0.069 A 
ATOM   6706  C6  ERG    69     -55.261  11.267  14.581  1.00  0.00     0.004 A 
ATOM   6707  C7  ERG    69     -55.175  11.647  13.277  1.00  0.00     0.004 A 
ATOM   6708  C8  ERG    69     -54.188  11.246  12.439  1.00  0.00    -0.070 A 
ATOM   6709  C9  ERG    69     -53.120  10.256  12.906  1.00  0.00     0.027 A 
ATOM   6710  C10 ERG    69     -53.237   9.841  14.419  1.00  0.00    -0.013 A 
ATOM   6711  C11 ERG    69     -52.884   9.112  11.860  1.00  0.00     0.011 C 
ATOM   6712  C12 ERG    69     -52.751   9.620  10.405  1.00  0.00     0.011 C 
ATOM   6713  C13 ERG    69     -53.894  10.575   9.995  1.00  0.00    -0.032 C 
ATOM   6714  C14 ERG    69     -53.913  11.717  11.011  1.00  0.00     0.023 C 
ATOM   6715  C15 ERG    69     -54.759  12.818  10.317  1.00  0.00     0.010 C 
ATOM   6716  C16 ERG    69     -54.463  12.661   8.813  1.00  0.00     0.007 C 
ATOM   6717  C17 ERG    69     -53.727  11.310   8.628  1.00  0.00     0.002 C 
ATOM   6718  C18 ERG    69     -55.305   9.922  10.049  1.00  0.00     0.016 C 
ATOM   6719  C19 ERG    69     -53.424   8.336  14.569  1.00  0.00     0.021 C 
ATOM   6720  C20 ERG    69     -54.181  10.596   7.336  1.00  0.00     0.008 C 
ATOM   6721  C21 ERG    69     -53.296   9.360   7.153  1.00  0.00     0.014 C 
ATOM   6722  C22 ERG    69     -53.988  11.334   6.024  1.00  0.00    -0.026 C 
ATOM   6723  C23 ERG    69     -54.891  11.602   5.063  1.00  0.00    -0.026 C 
ATOM   6724  C24 ERG    69     -54.497  12.339   3.804  1.00  0.00     0.007 C 
ATOM   6725  C25 ERG    69     -54.310  11.353   2.641  1.00  0.00    -0.015 C 
ATOM   6726  C26 ERG    69     -55.625  10.633   2.223  1.00  0.00     0.010 C 
ATOM   6727  C27 ERG    69     -53.572  12.036   1.460  1.00  0.00     0.010 C 
ATOM   6728  C28 ERG    69     -55.503  13.450   3.468  1.00  0.00     0.014 C 
ATOM   6729  H3' ERG    69     -52.126  10.100  19.002  1.00  0.00     0.210 HD
ATOM   6730  C1  ERG    70     -53.897 -18.950  15.385  1.00  0.00     0.017 C 
ATOM   6731  C2  ERG    70     -54.853 -19.059  16.606  1.00  0.00     0.033 C 
ATOM   6732  C3  ERG    70     -55.294 -17.674  16.945  1.00  0.00     0.122 C 
ATOM   6733  O3  ERG    70     -56.191 -17.396  18.044  1.00  0.00    -0.395 OA
ATOM   6734  C4  ERG    70     -56.094 -16.956  16.007  1.00  0.00     0.066 C 
ATOM   6735  C5  ERG    70     -55.312 -17.016  14.768  1.00  0.00    -0.069 C 
ATOM   6736  C6  ERG    70     -54.912 -15.889  14.197  1.00  0.00     0.004 C 
ATOM   6737  C7  ERG    70     -54.146 -15.892  13.102  1.00  0.00     0.004 C 
ATOM   6738  C8  ERG    70     -53.746 -17.014  12.462  1.00  0.00    -0.070 C 
ATOM   6739  C9  ERG    70     -54.082 -18.416  12.973  1.00  0.00     0.027 C 
ATOM   6740  C10 ERG    70     -54.827 -18.402  14.312  1.00  0.00    -0.013 C 
ATOM   6741  C11 ERG    70     -54.738 -19.279  11.858  1.00  0.00     0.011 C 
ATOM   6742  C12 ERG    70     -53.893 -19.297  10.581  1.00  0.00     0.011 C 
ATOM   6743  C13 ERG    70     -53.589 -17.869  10.096  1.00  0.00    -0.032 C 
ATOM   6744  C14 ERG    70     -52.909 -17.099  11.236  1.00  0.00     0.023 C 
ATOM   6745  C15 ERG    70     -52.226 -15.873  10.595  1.00  0.00     0.010 C 
ATOM   6746  C16 ERG    70     -51.816 -16.414   9.221  1.00  0.00     0.007 C 
ATOM   6747  C17 ERG    70     -52.476 -17.833   9.050  1.00  0.00     0.002 C 
ATOM   6748  C18 ERG    70     -54.876 -17.138   9.589  1.00  0.00     0.016 C 
ATOM   6749  C19 ERG    70     -56.039 -19.336  14.289  1.00  0.00     0.021 C 
ATOM   6750  C20 ERG    70     -52.849 -18.172   7.586  1.00  0.00     0.008 C 
ATOM   6751  C21 ERG    70     -53.628 -19.496   7.313  1.00  0.00     0.014 C 
ATOM   6752  C22 ERG    70     -51.561 -18.058   6.799  1.00  0.00    -0.026 C 
ATOM   6753  C23 ERG    70     -51.325 -17.204   5.785  1.00  0.00    -0.026 C 
ATOM   6754  C24 ERG    70     -50.009 -17.118   5.060  1.00  0.00     0.007 C 
ATOM   6755  C25 ERG    70     -50.028 -16.976   3.530  1.00  0.00    -0.015 C 
ATOM   6756  C26 ERG    70     -50.754 -18.187   2.886  1.00  0.00     0.010 C 
ATOM   6757  C27 ERG    70     -50.600 -15.622   3.043  1.00  0.00     0.010 C 
ATOM   6758  C28 ERG    70     -49.329 -15.893   5.732  1.00  0.00     0.014 C 
ATOM   6759  H3' ERG    70     -55.632 -16.964  18.706  1.00  0.00     0.210 HD
ATOM   6760  N   YOP    71      53.155  24.559  16.622  1.00  0.00    -0.077 N 
ATOM   6761  P   YOP    71      49.831  26.669  19.972  1.00  0.00     0.408 P 
ATOM   6762  C1  YOP    71      48.848  27.468  17.767  1.00  0.00     0.216 C 
ATOM   6763  C2  YOP    71      49.171  28.262  16.474  1.00  0.00     0.180 C 
ATOM   6764  C3  YOP    71      49.678  29.660  16.827  1.00  0.00     0.213 C 
ATOM   6765  C11 YOP    71      51.705  25.785  18.429  1.00  0.00     0.208 C 
ATOM   6766  O11 YOP    71      49.813  27.738  18.819  1.00  0.00    -0.287 OA
ATOM   6767  C12 YOP    71      51.827  24.712  17.348  1.00  0.00     0.256 C 
ATOM   6768  O12 YOP    71      50.502  25.487  19.163  1.00  0.00    -0.288 OA
ATOM   6769  O13 YOP    71      50.764  27.026  21.077  1.00  0.00    -0.624 OA
ATOM   6770  O14 YOP    71      48.416  26.324  20.237  1.00  0.00    -0.624 OA
ATOM   6771  C21 YOP    71      49.797  26.762  14.770  1.00  0.00     0.259 C 
ATOM   6772  O21 YOP    71      50.211  27.613  15.699  1.00  0.00    -0.312 OA
ATOM   6773  C22 YOP    71      51.011  26.216  14.016  1.00  0.00     0.111 C 
ATOM   6774  O22 YOP    71      48.658  26.397  14.586  1.00  0.00    -0.265 OA
ATOM   6775  C23 YOP    71      50.938  26.531  12.511  1.00  0.00     0.010 C 
ATOM   6776  C24 YOP    71      51.891  25.670  11.687  1.00  0.00     0.000 C 
ATOM   6777  C25 YOP    71      53.298  25.664  12.289  1.00  0.00     0.000 C 
ATOM   6778  C26 YOP    71      54.352  24.944  11.445  1.00  0.00     0.000 C 
ATOM   6779  C27 YOP    71      54.267  25.194   9.930  1.00  0.00     0.004 C 
ATOM   6780  C28 YOP    71      53.464  24.143   9.135  1.00  0.00     0.027 C 
ATOM   6781  C29 YOP    71      53.531  24.557   7.690  1.00  0.00    -0.031 C 
ATOM   6782  C31 YOP    71      51.599  30.395  15.609  1.00  0.00     0.258 C 
ATOM   6783  O31 YOP    71      50.274  30.314  15.689  1.00  0.00    -0.319 OA
ATOM   6784  C32 YOP    71      51.946  31.251  14.418  1.00  0.00     0.111 C 
ATOM   6785  O32 YOP    71      52.401  30.065  16.464  1.00  0.00    -0.265 OA
ATOM   6786  C33 YOP    71      52.574  30.293  13.421  1.00  0.00     0.010 C 
ATOM   6787  C34 YOP    71      53.301  31.015  12.295  1.00  0.00     0.000 C 
ATOM   6788  C35 YOP    71      53.593  30.070  11.123  1.00  0.00     0.000 C 
ATOM   6789  C36 YOP    71      54.531  30.619  10.045  1.00  0.00     0.000 C 
ATOM   6790  C37 YOP    71      55.214  29.621   9.110  1.00  0.00     0.004 C 
ATOM   6791  C38 YOP    71      54.149  28.849   8.366  1.00  0.00     0.027 C 
ATOM   6792  C39 YOP    71      54.647  27.971   7.258  1.00  0.00    -0.031 C 
ATOM   6793  C21 YOP    71      52.506  24.716   6.842  1.00  0.00    -0.031 C 
ATOM   6794  C21 YOP    71      51.055  24.506   7.154  1.00  0.00     0.027 C 
ATOM   6795  C21 YOP    71      50.242  25.815   7.269  1.00  0.00     0.004 C 
ATOM   6796  C21 YOP    71      50.232  26.706   5.999  1.00  0.00     0.000 C 
ATOM   6797  C21 YOP    71      49.068  26.589   5.068  1.00  0.00     0.000 C 
ATOM   6798  C21 YOP    71      49.246  25.440   4.130  1.00  0.00     0.000 C 
ATOM   6799  C21 YOP    71      50.368  24.764   3.437  1.00  0.00    -0.000 C 
ATOM   6800  C21 YOP    71      49.953  25.347   2.127  1.00  0.00    -0.005 C 
ATOM   6801  C21 YOP    71      51.054  25.058   1.224  1.00  0.00     0.005 C 
ATOM   6802  C31 YOP    71      54.504  28.195   5.941  1.00  0.00    -0.031 C 
ATOM   6803  C31 YOP    71      53.832  29.349   5.239  1.00  0.00     0.027 C 
ATOM   6804  C31 YOP    71      52.778  28.892   4.225  1.00  0.00     0.004 C 
ATOM   6805  C31 YOP    71      51.997  30.067   3.683  1.00  0.00     0.000 C 
ATOM   6806  C31 YOP    71      50.864  29.575   2.806  1.00  0.00    -0.000 C 
ATOM   6807  C31 YOP    71      49.681  30.149   3.407  1.00  0.00    -0.005 C 
ATOM   6808  C31 YOP    71      49.695  31.678   3.217  1.00  0.00     0.005 C 
ATOM   6809  HN1 YOP    71      53.244  23.712  16.016  1.00  0.00     0.274 HD
ATOM   6810  HN2 YOP    71      53.129  25.373  15.992  1.00  0.00     0.274 HD
ATOM   6811  HN3 YOP    71      54.001  24.598  17.232  1.00  0.00     0.274 HD
ATOM   6812  N   YOP    72      42.487 -38.827  18.821  1.00  0.00    -0.077 N 
ATOM   6813  P   YOP    72      39.129 -41.688  19.224  1.00  0.00     0.408 P 
ATOM   6814  C1  YOP    72      40.183 -41.829  16.870  1.00  0.00     0.216 C 
ATOM   6815  C2  YOP    72      40.178 -41.296  15.411  1.00  0.00     0.180 C 
ATOM   6816  C3  YOP    72      40.860 -42.379  14.535  1.00  0.00     0.213 C 
ATOM   6817  C11 YOP    72      39.982 -39.255  19.319  1.00  0.00     0.209 C 
ATOM   6818  O11 YOP    72      39.097 -41.349  17.665  1.00  0.00    -0.287 OA
ATOM   6819  C12 YOP    72      41.060 -38.848  18.317  1.00  0.00     0.262 C 
ATOM   6820  O12 YOP    72      40.171 -40.608  19.710  1.00  0.00    -0.288 OA
ATOM   6821  C13 YOP    72      43.277 -38.167  17.757  1.00  0.00     0.271 C 
ATOM   6822  O13 YOP    72      39.739 -43.021  19.417  1.00  0.00    -0.624 OA
ATOM   6823  C14 YOP    72      42.644 -38.104  20.130  1.00  0.00     0.271 C 
ATOM   6824  O14 YOP    72      37.807 -41.429  19.817  1.00  0.00    -0.624 OA
ATOM   6825  C15 YOP    72      42.907 -40.236  19.030  1.00  0.00     0.271 C 
ATOM   6826  C21 YOP    72      38.279 -39.903  15.143  1.00  0.00     0.259 C 
ATOM   6827  O21 YOP    72      38.845 -41.076  14.911  1.00  0.00    -0.312 OA
ATOM   6828  C22 YOP    72      36.894 -39.913  14.496  1.00  0.00     0.111 C 
ATOM   6829  O22 YOP    72      38.802 -38.923  15.639  1.00  0.00    -0.265 OA
ATOM   6830  C23 YOP    72      37.074 -39.753  12.948  1.00  0.00     0.010 C 
ATOM   6831  C24 YOP    72      35.813 -39.354  12.197  1.00  0.00     0.000 C 
ATOM   6832  C25 YOP    72      35.501 -39.064  10.747  1.00  0.00     0.000 C 
ATOM   6833  C26 YOP    72      36.379 -39.911   9.874  1.00  0.00     0.000 C 
ATOM   6834  C27 YOP    72      35.868 -39.803   8.453  1.00  0.00     0.004 C 
ATOM   6835  C28 YOP    72      36.990 -39.805   7.433  1.00  0.00     0.027 C 
ATOM   6836  C29 YOP    72      37.865 -38.584   7.587  1.00  0.00    -0.031 C 
ATOM   6837  C31 YOP    72      41.535 -42.734  12.332  1.00  0.00     0.258 C 
ATOM   6838  O31 YOP    72      40.961 -41.915  13.189  1.00  0.00    -0.319 OA
ATOM   6839  C32 YOP    72      41.486 -42.048  10.968  1.00  0.00     0.111 C 
ATOM   6840  O32 YOP    72      42.025 -43.818  12.594  1.00  0.00    -0.265 OA
ATOM   6841  C33 YOP    72      40.650 -42.867   9.964  1.00  0.00     0.010 C 
ATOM   6842  C34 YOP    72      40.372 -42.108   8.663  1.00  0.00     0.000 C 
ATOM   6843  C35 YOP    72      41.450 -42.342   7.597  1.00  0.00     0.000 C 
ATOM   6844  C36 YOP    72      41.386 -41.306   6.462  1.00  0.00     0.000 C 
ATOM   6845  C37 YOP    72      41.551 -39.860   6.949  1.00  0.00     0.004 C 
ATOM   6846  C38 YOP    72      41.749 -38.868   5.788  1.00  0.00     0.027 C 
ATOM   6847  C39 YOP    72      43.007 -39.080   4.969  1.00  0.00    -0.031 C 
ATOM   6848  C21 YOP    72      37.997 -37.550   6.745  1.00  0.00    -0.031 C 
ATOM   6849  C21 YOP    72      37.271 -37.397   5.436  1.00  0.00     0.027 C 
ATOM   6850  C21 YOP    72      38.050 -38.057   4.286  1.00  0.00     0.004 C 
ATOM   6851  C21 YOP    72      37.332 -37.854   2.947  1.00  0.00     0.000 C 
ATOM   6852  C21 YOP    72      38.019 -38.540   1.764  1.00  0.00     0.000 C 
ATOM   6853  C21 YOP    72      37.456 -38.078   0.417  1.00  0.00     0.000 C 
ATOM   6854  C21 YOP    72      38.109 -38.832  -0.751  1.00  0.00    -0.000 C 
ATOM   6855  C21 YOP    72      38.041 -40.345  -0.854  1.00  0.00    -0.005 C 
ATOM   6856  C21 YOP    72      36.668 -40.949  -0.834  1.00  0.00     0.005 C 
ATOM   6857  C31 YOP    72      43.071 -39.496   3.690  1.00  0.00    -0.031 C 
ATOM   6858  C31 YOP    72      41.901 -39.837   2.800  1.00  0.00     0.027 C 
ATOM   6859  C31 YOP    72      41.839 -38.975   1.541  1.00  0.00     0.004 C 
ATOM   6860  C31 YOP    72      41.764 -37.496   1.950  1.00  0.00     0.000 C 
ATOM   6861  C31 YOP    72      42.333 -36.589   0.903  1.00  0.00    -0.000 C 
ATOM   6862  C31 YOP    72      42.335 -35.115   0.991  1.00  0.00    -0.005 C 
ATOM   6863  C31 YOP    72      41.774 -34.447  -0.218  1.00  0.00     0.005 C 
ATOM   6864  C1  ERG    73     -47.949 -34.647  15.514  1.00  0.00     0.017 C 
ATOM   6865  C2  ERG    73     -47.673 -34.347  16.988  1.00  0.00     0.033 C 
ATOM   6866  C3  ERG    73     -48.418 -33.074  17.363  1.00  0.00     0.122 C 
ATOM   6867  O3  ERG    73     -48.176 -32.835  18.735  1.00  0.00    -0.395 OA
ATOM   6868  C4  ERG    73     -49.940 -33.083  17.074  1.00  0.00     0.066 C 
ATOM   6869  C5  ERG    73     -50.211 -33.492  15.642  1.00  0.00    -0.069 A 
ATOM   6870  C6  ERG    73     -50.945 -32.744  14.781  1.00  0.00     0.004 A 
ATOM   6871  C7  ERG    73     -51.088 -33.015  13.467  1.00  0.00     0.004 A 
ATOM   6872  C8  ERG    73     -50.475 -34.041  12.851  1.00  0.00    -0.070 A 
ATOM   6873  C9  ERG    73     -49.604 -35.031  13.619  1.00  0.00     0.027 A 
ATOM   6874  C10 ERG    73     -49.464 -34.767  15.168  1.00  0.00    -0.013 A 
ATOM   6875  C11 ERG    73     -50.048 -36.454  13.144  1.00  0.00     0.011 C 
ATOM   6876  C12 ERG    73     -49.970 -36.659  11.591  1.00  0.00     0.011 C 
ATOM   6877  C13 ERG    73     -50.818 -35.620  10.803  1.00  0.00    -0.032 C 
ATOM   6878  C14 ERG    73     -50.440 -34.255  11.362  1.00  0.00     0.023 C 
ATOM   6879  C15 ERG    73     -51.097 -33.195  10.453  1.00  0.00     0.010 C 
ATOM   6880  C16 ERG    73     -51.098 -33.843   9.074  1.00  0.00     0.007 C 
ATOM   6881  C17 ERG    73     -50.607 -35.310   9.291  1.00  0.00     0.002 C 
ATOM   6882  C18 ERG    73     -52.303 -35.948  10.971  1.00  0.00     0.016 C 
ATOM   6883  C19 ERG    73     -49.991 -35.974  15.976  1.00  0.00     0.021 C 
ATOM   6884  C20 ERG    73     -51.229 -36.233   8.236  1.00  0.00     0.008 C 
ATOM   6885  C21 ERG    73     -50.546 -37.604   8.352  1.00  0.00     0.014 C 
ATOM   6886  C22 ERG    73     -51.101 -35.648   6.830  1.00  0.00    -0.026 C 
ATOM   6887  C23 ERG    73     -51.957 -35.754   5.793  1.00  0.00    -0.026 C 
ATOM   6888  C24 ERG    73     -51.689 -35.084   4.444  1.00  0.00     0.007 C 
ATOM   6889  C25 ERG    73     -51.531 -33.561   4.590  1.00  0.00    -0.015 C 
ATOM   6890  C26 ERG    73     -51.501 -32.844   3.243  1.00  0.00     0.010 C 
ATOM   6891  C27 ERG    73     -52.737 -32.999   5.345  1.00  0.00     0.010 C 
ATOM   6892  C28 ERG    73     -50.424 -35.700   3.784  1.00  0.00     0.014 C 
ATOM   6893  H3' ERG    73     -48.263 -31.887  18.840  1.00  0.00     0.210 HD
ATOM   6894  C1  ERG    74     -47.076  37.543  14.954  1.00  0.00     0.017 C 
ATOM   6895  C2  ERG    74     -46.461  37.006  16.160  1.00  0.00     0.033 C 
ATOM   6896  C3  ERG    74     -47.726  36.707  17.091  1.00  0.00     0.122 C 
ATOM   6897  O3  ERG    74     -47.672  36.473  18.424  1.00  0.00    -0.395 OA
ATOM   6898  C4  ERG    74     -48.503  35.484  16.805  1.00  0.00     0.066 C 
ATOM   6899  C5  ERG    74     -49.034  36.037  15.611  1.00  0.00    -0.069 C 
ATOM   6900  C6  ERG    74     -50.289  36.301  15.675  1.00  0.00     0.004 C 
ATOM   6901  C7  ERG    74     -50.785  37.081  14.707  1.00  0.00     0.004 C 
ATOM   6902  C8  ERG    74     -50.239  37.519  13.623  1.00  0.00    -0.070 C 
ATOM   6903  C9  ERG    74     -48.829  37.248  13.365  1.00  0.00     0.027 C 
ATOM   6904  C10 ERG    74     -48.100  36.523  14.497  1.00  0.00    -0.013 C 
ATOM   6905  C11 ERG    74     -48.674  36.627  11.977  1.00  0.00     0.011 C 
ATOM   6906  C12 ERG    74     -49.327  37.502  10.888  1.00  0.00     0.011 C 
ATOM   6907  C13 ERG    74     -50.785  37.844  11.203  1.00  0.00    -0.032 C 
ATOM   6908  C14 ERG    74     -50.974  38.303  12.623  1.00  0.00     0.023 C 
ATOM   6909  C15 ERG    74     -52.458  38.746  12.807  1.00  0.00     0.010 C 
ATOM   6910  C16 ERG    74     -52.881  39.089  11.377  1.00  0.00     0.007 C 
ATOM   6911  C17 ERG    74     -51.615  38.876  10.466  1.00  0.00     0.002 C 
ATOM   6912  C18 ERG    74     -51.508  36.618  10.971  1.00  0.00     0.016 C 
ATOM   6913  C19 ERG    74     -47.411  35.222  14.029  1.00  0.00     0.021 C 
ATOM   6914  C20 ERG    74     -51.940  38.575   9.009  1.00  0.00     0.008 C 
ATOM   6915  C21 ERG    74     -50.700  38.783   8.124  1.00  0.00     0.014 C 
ATOM   6916  C22 ERG    74     -52.961  39.499   8.466  1.00  0.00    -0.026 C 
ATOM   6917  C23 ERG    74     -54.083  39.089   7.871  1.00  0.00    -0.026 C 
ATOM   6918  C24 ERG    74     -55.149  39.973   7.269  1.00  0.00     0.007 C 
ATOM   6919  C25 ERG    74     -55.466  39.661   5.821  1.00  0.00    -0.015 C 
ATOM   6920  C26 ERG    74     -56.527  40.625   5.103  1.00  0.00     0.010 C 
ATOM   6921  C27 ERG    74     -54.038  39.415   5.211  1.00  0.00     0.010 C 
ATOM   6922  C28 ERG    74     -56.408  40.271   8.126  1.00  0.00     0.014 C 
ATOM   6923  H3' ERG    74     -46.760  36.162  18.339  1.00  0.00     0.210 HD
ATOM   6924  C1  ERG    75     -36.179  50.701  16.153  1.00  0.00     0.017 C 
ATOM   6925  C2  ERG    75     -35.340  50.265  17.361  1.00  0.00     0.033 C 
ATOM   6926  C3  ERG    75     -35.094  48.751  17.423  1.00  0.00     0.122 C 
ATOM   6927  O3  ERG    75     -34.193  48.474  18.462  1.00  0.00    -0.395 OA
ATOM   6928  C4  ERG    75     -34.477  48.226  16.138  1.00  0.00     0.066 C 
ATOM   6929  C5  ERG    75     -35.336  48.636  14.974  1.00  0.00    -0.069 C 
ATOM   6930  C6  ERG    75     -35.836  47.702  14.156  1.00  0.00     0.004 C 
ATOM   6931  C7  ERG    75     -36.681  47.962  13.139  1.00  0.00     0.004 C 
ATOM   6932  C8  ERG    75     -37.155  49.197  12.858  1.00  0.00    -0.070 C 
ATOM   6933  C9  ERG    75     -36.752  50.417  13.688  1.00  0.00     0.027 C 
ATOM   6934  C10 ERG    75     -35.666  50.147  14.799  1.00  0.00    -0.013 C 
ATOM   6935  C11 ERG    75     -36.461  51.634  12.748  1.00  0.00     0.011 C 
ATOM   6936  C12 ERG    75     -37.518  51.907  11.645  1.00  0.00     0.011 C 
ATOM   6937  C13 ERG    75     -37.875  50.669  10.829  1.00  0.00    -0.032 C 
ATOM   6938  C14 ERG    75     -38.178  49.556  11.805  1.00  0.00     0.023 C 
ATOM   6939  C15 ERG    75     -38.694  48.482  10.854  1.00  0.00     0.010 C 
ATOM   6940  C16 ERG    75     -39.529  49.205   9.789  1.00  0.00     0.007 C 
ATOM   6941  C17 ERG    75     -39.177  50.719   9.993  1.00  0.00     0.002 C 
ATOM   6942  C18 ERG    75     -36.754  50.269   9.837  1.00  0.00     0.016 C 
ATOM   6943  C19 ERG    75     -34.320  50.824  14.388  1.00  0.00     0.021 C 
ATOM   6944  C20 ERG    75     -39.174  51.543   8.691  1.00  0.00     0.008 C 
ATOM   6945  C21 ERG    75     -39.076  53.072   8.893  1.00  0.00     0.014 C 
ATOM   6946  C22 ERG    75     -40.469  51.346   7.951  1.00  0.00    -0.026 C 
ATOM   6947  C23 ERG    75     -40.595  50.623   6.832  1.00  0.00    -0.026 C 
ATOM   6948  C24 ERG    75     -41.892  50.394   6.057  1.00  0.00     0.007 C 
ATOM   6949  C25 ERG    75     -41.878  49.147   5.184  1.00  0.00    -0.015 C 
ATOM   6950  C26 ERG    75     -41.340  49.621   3.827  1.00  0.00     0.010 C 
ATOM   6951  C27 ERG    75     -41.020  48.003   5.764  1.00  0.00     0.010 C 
ATOM   6952  C28 ERG    75     -43.132  50.310   6.972  1.00  0.00     0.014 C 
ATOM   6953  H3' ERG    75     -33.408  48.991  18.241  1.00  0.00     0.210 HD
ATOM   6954  C1  ERG    76      45.555  41.061  15.200  1.00  0.00     0.017 C 
ATOM   6955  C2  ERG    76      46.311  40.565  16.448  1.00  0.00     0.033 C 
ATOM   6956  C3  ERG    76      47.236  41.578  17.208  1.00  0.00     0.122 C 
ATOM   6957  O3  ERG    76      47.725  41.209  18.492  1.00  0.00    -0.395 OA
ATOM   6958  C4  ERG    76      46.645  42.918  17.383  1.00  0.00     0.066 C 
ATOM   6959  C5  ERG    76      45.923  43.364  16.096  1.00  0.00    -0.069 A 
ATOM   6960  C6  ERG    76      46.123  44.582  15.603  1.00  0.00     0.004 A 
ATOM   6961  C7  ERG    76      45.528  45.019  14.480  1.00  0.00     0.004 A 
ATOM   6962  C8  ERG    76      44.702  44.270  13.721  1.00  0.00    -0.070 A 
ATOM   6963  C9  ERG    76      44.208  42.890  14.042  1.00  0.00     0.027 A 
ATOM   6964  C10 ERG    76      44.900  42.460  15.310  1.00  0.00    -0.013 A 
ATOM   6965  C11 ERG    76      42.618  42.688  13.919  1.00  0.00     0.011 C 
ATOM   6966  C12 ERG    76      42.108  43.168  12.620  1.00  0.00     0.011 C 
ATOM   6967  C13 ERG    76      42.623  44.579  12.513  1.00  0.00    -0.032 C 
ATOM   6968  C14 ERG    76      44.158  44.630  12.429  1.00  0.00     0.023 C 
ATOM   6969  C15 ERG    76      44.637  45.921  11.771  1.00  0.00     0.010 C 
ATOM   6970  C16 ERG    76      43.541  46.044  10.741  1.00  0.00     0.001 C 
ATOM   6971  C17 ERG    76      42.217  45.067  11.161  1.00  0.00     0.005 C 
ATOM   6972  C18 ERG    76      42.141  45.422  13.736  1.00  0.00     0.016 C 
ATOM   6973  C19 ERG    76      43.649  42.367  16.036  1.00  0.00     0.021 C 
ATOM   6974  C20 ERG    76      40.322  45.170  10.950  1.00  0.00     0.000 C 
ATOM   6975  C21 ERG    76      40.889  44.231   9.562  1.00  0.00     0.000 C 
ATOM   6976  C22 ERG    76      38.943  47.106  10.817  1.00  0.00    -0.018 C 
ATOM   6977  C23 ERG    76      38.856  48.080  11.748  1.00  0.00    -0.009 C 
ATOM   6978  C24 ERG    76      38.418  49.394  12.171  1.00  0.00     0.008 C 
ATOM   6979  C25 ERG    76      37.366  50.114  11.635  1.00  0.00    -0.015 C 
ATOM   6980  C26 ERG    76      37.762  50.288  10.117  1.00  0.00     0.010 C 
ATOM   6981  C27 ERG    76      36.320  49.095  11.944  1.00  0.00     0.010 C 
ATOM   6982  C28 ERG    76      38.668  49.213  13.673  1.00  0.00     0.014 C 
ATOM   6983  H3' ERG    76      47.795  41.934  19.109  1.00  0.00     0.210 HD
ATOM   6984  H22 ERG    76      39.396  48.139  10.235  1.00  0.00     0.000 HD
ATOM   6985  C1  ERG    77      31.187  55.253  15.061  1.00  0.00     0.017 C 
ATOM   6986  C2  ERG    77      30.976  55.314  16.553  1.00  0.00     0.033 C 
ATOM   6987  C3  ERG    77      30.199  54.235  17.211  1.00  0.00     0.122 C 
ATOM   6988  O3  ERG    77      30.088  54.356  18.642  1.00  0.00    -0.395 OA
ATOM   6989  C4  ERG    77      31.048  53.062  16.843  1.00  0.00     0.066 C 
ATOM   6990  C5  ERG    77      31.262  52.799  15.385  1.00  0.00    -0.069 C 
ATOM   6991  C6  ERG    77      30.870  51.677  14.762  1.00  0.00     0.004 C 
ATOM   6992  C7  ERG    77      30.941  51.528  13.433  1.00  0.00     0.004 C 
ATOM   6993  C8  ERG    77      31.344  52.496  12.585  1.00  0.00    -0.070 C 
ATOM   6994  C9  ERG    77      31.791  53.878  13.046  1.00  0.00     0.027 C 
ATOM   6995  C10 ERG    77      31.887  53.970  14.600  1.00  0.00    -0.013 C 
ATOM   6996  C11 ERG    77      32.997  54.407  12.190  1.00  0.00     0.011 C 
ATOM   6997  C12 ERG    77      32.743  54.296  10.659  1.00  0.00     0.011 C 
ATOM   6998  C13 ERG    77      32.497  52.811  10.305  1.00  0.00    -0.032 C 
ATOM   6999  C14 ERG    77      31.275  52.400  11.105  1.00  0.00     0.023 C 
ATOM   7000  C15 ERG    77      30.720  51.114  10.483  1.00  0.00     0.010 C 
ATOM   7001  C16 ERG    77      31.134  51.195   9.019  1.00  0.00     0.007 C 
ATOM   7002  C17 ERG    77      32.014  52.468   8.877  1.00  0.00     0.002 C 
ATOM   7003  C18 ERG    77      33.712  51.931  10.688  1.00  0.00     0.016 C 
ATOM   7004  C19 ERG    77      33.376  54.011  15.014  1.00  0.00     0.021 C 
ATOM   7005  C20 ERG    77      33.054  52.289   7.781  1.00  0.00     0.008 C 
ATOM   7006  C21 ERG    77      33.880  53.582   7.631  1.00  0.00     0.014 C 
ATOM   7007  C22 ERG    77      32.437  51.980   6.438  1.00  0.00    -0.026 C 
ATOM   7008  C23 ERG    77      33.091  51.262   5.513  1.00  0.00    -0.026 C 
ATOM   7009  C24 ERG    77      32.590  50.908   4.138  1.00  0.00     0.007 C 
ATOM   7010  C25 ERG    77      33.723  51.105   3.120  1.00  0.00    -0.015 C 
ATOM   7011  C26 ERG    77      33.214  50.697   1.732  1.00  0.00     0.010 C 
ATOM   7012  C27 ERG    77      34.251  52.556   3.137  1.00  0.00     0.010 C 
ATOM   7013  C28 ERG    77      32.083  49.447   4.076  1.00  0.00     0.014 C 
ATOM   7014  H3' ERG    77      30.835  53.967  19.096  1.00  0.00     0.210 HD
ATOM   7015  C1  ERG    78      52.486 -35.104  15.887  1.00  0.00     0.017 C 
ATOM   7016  C2  ERG    78      52.587 -35.829  17.218  1.00  0.00     0.033 C 
ATOM   7017  C3  ERG    78      51.487 -36.812  17.368  1.00  0.00     0.122 C 
ATOM   7018  O3  ERG    78      51.761 -37.385  18.627  1.00  0.00    -0.395 OA
ATOM   7019  C4  ERG    78      51.274 -37.825  16.229  1.00  0.00     0.066 C 
ATOM   7020  C5  ERG    78      51.163 -37.045  14.930  1.00  0.00    -0.069 A 
ATOM   7021  C6  ERG    78      50.105 -37.154  14.098  1.00  0.00     0.004 A 
ATOM   7022  C7  ERG    78      49.947 -36.442  12.961  1.00  0.00     0.004 A 
ATOM   7023  C8  ERG    78      50.795 -35.481  12.536  1.00  0.00    -0.070 A 
ATOM   7024  C9  ERG    78      52.035 -35.114  13.381  1.00  0.00     0.027 A 
ATOM   7025  C10 ERG    78      52.292 -36.021  14.646  1.00  0.00    -0.013 A 
ATOM   7026  C11 ERG    78      53.305 -34.930  12.486  1.00  0.00     0.011 C 
ATOM   7027  C12 ERG    78      53.052 -34.161  11.181  1.00  0.00     0.011 C 
ATOM   7028  C13 ERG    78      51.913 -34.803  10.345  1.00  0.00    -0.032 C 
ATOM   7029  C14 ERG    78      50.659 -34.720  11.213  1.00  0.00     0.023 C 
ATOM   7030  C15 ERG    78      49.473 -35.027  10.260  1.00  0.00     0.010 C 
ATOM   7031  C16 ERG    78      49.926 -34.483   8.904  1.00  0.00     0.007 C 
ATOM   7032  C17 ERG    78      51.430 -34.086   9.051  1.00  0.00     0.002 C 
ATOM   7033  C18 ERG    78      52.177 -36.303  10.030  1.00  0.00     0.016 C 
ATOM   7034  C19 ERG    78      53.582 -36.848  14.405  1.00  0.00     0.021 C 
ATOM   7035  C20 ERG    78      52.190 -34.333   7.736  1.00  0.00     0.008 C 
ATOM   7036  C21 ERG    78      53.669 -33.953   7.900  1.00  0.00     0.014 C 
ATOM   7037  C22 ERG    78      51.461 -33.647   6.569  1.00  0.00    -0.026 C 
ATOM   7038  C23 ERG    78      50.814 -34.234   5.526  1.00  0.00    -0.026 C 
ATOM   7039  C24 ERG    78      50.045 -33.588   4.352  1.00  0.00     0.007 C 
ATOM   7040  C25 ERG    78      50.516 -33.664   2.887  1.00  0.00    -0.015 C 
ATOM   7041  C26 ERG    78      51.672 -32.698   2.642  1.00  0.00     0.010 C 
ATOM   7042  C27 ERG    78      50.917 -35.079   2.456  1.00  0.00     0.010 C 
ATOM   7043  C28 ERG    78      48.615 -34.210   4.332  1.00  0.00     0.014 C 
ATOM   7044  H3' ERG    78      52.358 -38.126  18.450  1.00  0.00     0.210 HD
ATOM   7045  N   POP    79     -45.589  44.531  19.854  1.00  0.00    -0.063 N 
ATOM   7046  P   POP    79     -42.105  46.690  17.561  1.00  0.00     0.408 P 
ATOM   7047  C1  POP    79     -43.545  45.484  15.700  1.00  0.00     0.216 C 
ATOM   7048  C2  POP    79     -42.553  44.838  14.735  1.00  0.00     0.180 C 
ATOM   7049  C3  POP    79     -43.226  43.510  14.353  1.00  0.00     0.213 C 
ATOM   7050  C11 POP    79     -44.294  46.351  18.870  1.00  0.00     0.225 C 
ATOM   7051  O11 POP    79     -43.039  46.681  16.257  1.00  0.00    -0.287 OA
ATOM   7052  C12 POP    79     -44.998  45.824  20.212  1.00  0.00     0.307 C 
ATOM   7053  O12 POP    79     -43.028  45.869  18.593  1.00  0.00    -0.287 OA
ATOM   7054  C13 POP    79     -46.063  46.554  21.055  1.00  0.00     0.206 C 
ATOM   7055  O13 POP    79     -40.893  45.893  17.479  1.00  0.00    -0.624 OA
ATOM   7056  O13 POP    79     -47.220  46.066  21.075  1.00  0.00    -0.646 OA
ATOM   7057  O13 POP    79     -45.664  47.549  21.726  1.00  0.00    -0.646 OA
ATOM   7058  O14 POP    79     -41.983  48.103  17.949  1.00  0.00    -0.624 OA
ATOM   7059  C21 POP    79     -41.483  46.622  13.755  1.00  0.00     0.259 C 
ATOM   7060  O21 POP    79     -42.388  45.689  13.597  1.00  0.00    -0.312 OA
ATOM   7061  C22 POP    79     -41.455  47.427  12.489  1.00  0.00     0.111 C 
ATOM   7062  O22 POP    79     -40.605  46.705  14.588  1.00  0.00    -0.265 OA
ATOM   7063  C23 POP    79     -41.599  48.934  12.746  1.00  0.00     0.010 C 
ATOM   7064  C24 POP    79     -43.046  49.339  13.052  1.00  0.00     0.000 C 
ATOM   7065  C25 POP    79     -43.953  49.378  11.812  1.00  0.00     0.000 C 
ATOM   7066  C26 POP    79     -44.588  48.021  11.490  1.00  0.00     0.000 C 
ATOM   7067  C27 POP    79     -45.292  48.029  10.130  1.00  0.00     0.004 C 
ATOM   7068  C28 POP    79     -45.807  46.653   9.703  1.00  0.00     0.027 C 
ATOM   7069  C29 POP    79     -44.796  45.608   9.386  1.00  0.00    -0.031 C 
ATOM   7070  C31 POP    79     -42.956  42.637  12.308  1.00  0.00     0.258 C 
ATOM   7071  O31 POP    79     -42.430  42.802  13.479  1.00  0.00    -0.319 OA
ATOM   7072  C32 POP    79     -41.803  42.450  11.482  1.00  0.00     0.111 C 
ATOM   7073  O32 POP    79     -44.112  42.457  11.990  1.00  0.00    -0.265 OA
ATOM   7074  C33 POP    79     -41.759  43.228  10.135  1.00  0.00     0.010 C 
ATOM   7075  C34 POP    79     -40.697  42.964   9.094  1.00  0.00     0.000 C 
ATOM   7076  C35 POP    79     -40.444  43.397   7.684  1.00  0.00     0.000 C 
ATOM   7077  C36 POP    79     -41.554  43.050   6.732  1.00  0.00     0.000 C 
ATOM   7078  C37 POP    79     -41.023  42.955   5.314  1.00  0.00     0.000 C 
ATOM   7079  C38 POP    79     -42.178  42.616   4.312  1.00  0.00     0.000 C 
ATOM   7080  C39 POP    79     -43.137  41.333   4.327  1.00  0.00     0.000 C 
ATOM   7081  C21 POP    79     -44.880  44.704   8.403  1.00  0.00    -0.031 C 
ATOM   7082  C21 POP    79     -46.018  44.592   7.438  1.00  0.00     0.027 C 
ATOM   7083  C21 POP    79     -45.797  45.398   6.164  1.00  0.00     0.004 C 
ATOM   7084  C21 POP    79     -44.569  45.029   5.368  1.00  0.00     0.000 C 
ATOM   7085  C21 POP    79     -44.457  46.037   4.237  1.00  0.00     0.000 C 
ATOM   7086  C21 POP    79     -43.166  45.946   3.433  1.00  0.00     0.000 C 
ATOM   7087  C21 POP    79     -43.103  47.061   2.384  1.00  0.00    -0.000 C 
ATOM   7088  C21 POP    79     -41.765  47.127   1.643  1.00  0.00    -0.005 C 
ATOM   7089  C21 POP    79     -41.413  45.867   0.901  1.00  0.00     0.005 C 
ATOM   7090  C31 POP    79     -43.785  40.994   3.014  1.00  0.00     0.000 C 
ATOM   7091  C31 POP    79     -44.416  42.220   2.573  1.00  0.00     0.000 C 
ATOM   7092  C31 POP    79     -45.264  41.699   1.520  1.00  0.00     0.000 C 
ATOM   7093  C31 POP    79     -46.265  42.753   1.231  1.00  0.00     0.000 C 
ATOM   7094  C31 POP    79     -45.883  44.250   1.466  1.00  0.00    -0.000 C 
ATOM   7095  C31 POP    79     -46.631  45.243   0.608  1.00  0.00    -0.005 C 
ATOM   7096  C31 POP    79     -47.972  44.556   0.369  1.00  0.00     0.005 C 
ATOM   7097  HN1 POP    79     -46.209  44.701  19.030  1.00  0.00     0.275 HD
ATOM   7098  HN2 POP    79     -44.736  43.983  19.697  1.00  0.00     0.275 HD
ATOM   7099  HN3 POP    79     -46.225  44.261  20.650  1.00  0.00     0.275 HD
ATOM   7100  N   POP    80     -45.437 -43.027  20.052  1.00  0.00    -0.077 N 
ATOM   7101  P   POP    80     -50.346 -43.708  18.591  1.00  0.00     0.408 P 
ATOM   7102  C1  POP    80     -51.065 -44.900  16.371  1.00  0.00     0.216 C 
ATOM   7103  C2  POP    80     -50.759 -44.511  14.902  1.00  0.00     0.180 C 
ATOM   7104  C3  POP    80     -51.032 -42.990  14.693  1.00  0.00     0.213 C 
ATOM   7105  C11 POP    80     -47.766 -43.574  19.085  1.00  0.00     0.208 C 
ATOM   7106  O11 POP    80     -50.023 -44.395  17.217  1.00  0.00    -0.287 OA
ATOM   7107  C12 POP    80     -46.823 -43.579  20.322  1.00  0.00     0.256 C 
ATOM   7108  O12 POP    80     -49.054 -44.023  19.473  1.00  0.00    -0.288 OA
ATOM   7109  O13 POP    80     -50.416 -42.245  18.383  1.00  0.00    -0.624 OA
ATOM   7110  O14 POP    80     -51.517 -44.371  19.194  1.00  0.00    -0.624 OA
ATOM   7111  C21 POP    80     -49.042 -46.044  14.575  1.00  0.00     0.259 C 
ATOM   7112  O21 POP    80     -49.389 -44.779  14.578  1.00  0.00    -0.312 OA
ATOM   7113  C22 POP    80     -47.624 -46.104  14.024  1.00  0.00     0.111 C 
ATOM   7114  O22 POP    80     -49.761 -47.001  14.797  1.00  0.00    -0.265 OA
ATOM   7115  C23 POP    80     -47.494 -47.024  12.785  1.00  0.00     0.010 C 
ATOM   7116  C24 POP    80     -48.193 -46.459  11.530  1.00  0.00     0.000 C 
ATOM   7117  C25 POP    80     -49.716 -46.722  11.430  1.00  0.00     0.000 C 
ATOM   7118  C26 POP    80     -50.429 -45.971  10.289  1.00  0.00     0.000 C 
ATOM   7119  C27 POP    80     -49.733 -46.156   8.927  1.00  0.00     0.004 C 
ATOM   7120  C28 POP    80     -50.357 -45.448   7.699  1.00  0.00     0.027 C 
ATOM   7121  C29 POP    80     -50.702 -44.010   8.003  1.00  0.00    -0.031 C 
ATOM   7122  C31 POP    80     -50.616 -41.284  13.106  1.00  0.00     0.258 C 
ATOM   7123  O31 POP    80     -50.671 -42.586  13.358  1.00  0.00    -0.319 OA
ATOM   7124  C32 POP    80     -49.778 -41.077  11.846  1.00  0.00     0.111 C 
ATOM   7125  O32 POP    80     -51.075 -40.395  13.799  1.00  0.00    -0.265 OA
ATOM   7126  C33 POP    80     -48.386 -41.701  12.091  1.00  0.00     0.010 C 
ATOM   7127  C34 POP    80     -47.286 -41.126  11.196  1.00  0.00     0.000 C 
ATOM   7128  C35 POP    80     -47.189 -41.738   9.796  1.00  0.00     0.000 C 
ATOM   7129  C36 POP    80     -46.661 -43.184   9.746  1.00  0.00     0.000 C 
ATOM   7130  C37 POP    80     -45.549 -43.283   8.690  1.00  0.00     0.000 C 
ATOM   7131  C38 POP    80     -44.968 -44.685   8.491  1.00  0.00     0.000 C 
ATOM   7132  C39 POP    80     -45.721 -45.554   7.460  1.00  0.00     0.000 C 
ATOM   7133  C21 POP    80     -50.100 -42.892   7.560  1.00  0.00    -0.031 C 
ATOM   7134  C21 POP    80     -48.916 -42.810   6.634  1.00  0.00     0.027 C 
ATOM   7135  C21 POP    80     -49.430 -42.543   5.206  1.00  0.00     0.004 C 
ATOM   7136  C21 POP    80     -48.329 -42.498   4.134  1.00  0.00     0.000 C 
ATOM   7137  C21 POP    80     -47.241 -41.438   4.392  1.00  0.00     0.000 C 
ATOM   7138  C21 POP    80     -46.058 -41.448   3.400  1.00  0.00     0.000 C 
ATOM   7139  C21 POP    80     -45.468 -42.849   3.127  1.00  0.00    -0.000 C 
ATOM   7140  C21 POP    80     -44.091 -42.780   2.468  1.00  0.00    -0.005 C 
ATOM   7141  C21 POP    80     -43.273 -44.078   2.511  1.00  0.00     0.005 C 
ATOM   7142  C31 POP    80     -45.477 -45.183   5.979  1.00  0.00     0.000 C 
ATOM   7143  C31 POP    80     -45.963 -46.229   4.948  1.00  0.00     0.000 C 
ATOM   7144  C31 POP    80     -47.498 -46.299   5.011  1.00  0.00     0.000 C 
ATOM   7145  C31 POP    80     -48.189 -47.192   3.989  1.00  0.00     0.000 C 
ATOM   7146  C31 POP    80     -48.212 -46.662   2.531  1.00  0.00    -0.000 C 
ATOM   7147  C31 POP    80     -48.910 -47.583   1.491  1.00  0.00    -0.005 C 
ATOM   7148  C31 POP    80     -50.269 -48.121   1.871  1.00  0.00     0.005 C 
ATOM   7149  HN1 POP    80     -45.043 -43.585  19.254  1.00  0.00     0.274 HD
ATOM   7150  HN2 POP    80     -45.381 -42.097  19.595  1.00  0.00     0.274 HD
ATOM   7151  HN3 POP    80     -44.696 -43.218  20.754  1.00  0.00     0.274 HD
ATOM   7152  N   DYP    81     -43.117 -53.691  20.349  1.00  0.00     0.075 N 
ATOM   7153  P   DYP    81     -38.576 -53.818  17.611  1.00  0.00     0.408 P 
ATOM   7154  C1  DYP    81     -40.098 -51.353  16.539  1.00  0.00     0.216 C 
ATOM   7155  C2  DYP    81     -41.547 -50.751  16.393  1.00  0.00     0.180 C 
ATOM   7156  C3  DYP    81     -41.846 -49.278  16.461  1.00  0.00     0.213 C 
ATOM   7157  C11 DYP    81     -40.688 -54.946  18.641  1.00  0.00     0.181 C 
ATOM   7158  O11 DYP    81     -39.606 -52.778  16.725  1.00  0.00    -0.287 OA
ATOM   7159  C12 DYP    81     -42.040 -54.626  19.465  1.00  0.00     0.029 C 
ATOM   7160  O12 DYP    81     -39.449 -54.317  18.920  1.00  0.00    -0.290 OA
ATOM   7161  C13 DYP    81     -42.520 -53.094  21.545  1.00  0.00     0.308 C 
ATOM   7162  O13 DYP    81     -38.261 -54.978  16.796  1.00  0.00    -0.624 OA
ATOM   7163  C14 DYP    81     -43.767 -54.796  20.813  1.00  0.00     0.308 C 
ATOM   7164  O14 DYP    81     -37.348 -53.218  18.159  1.00  0.00    -0.624 OA
ATOM   7165  C15 DYP    81     -44.359 -52.809  19.947  1.00  0.00     0.308 C 
ATOM   7166  C21 DYP    81     -42.834 -51.801  14.834  1.00  0.00     0.259 C 
ATOM   7167  O21 DYP    81     -41.735 -51.405  15.198  1.00  0.00    -0.312 OA
ATOM   7168  C22 DYP    81     -42.482 -52.089  13.438  1.00  0.00     0.111 C 
ATOM   7169  O22 DYP    81     -43.923 -51.798  15.378  1.00  0.00    -0.265 OA
ATOM   7170  C23 DYP    81     -43.752 -51.817  12.725  1.00  0.00     0.010 C 
ATOM   7171  C24 DYP    81     -43.382 -52.040  11.302  1.00  0.00     0.000 C 
ATOM   7172  C25 DYP    81     -44.591 -52.012  10.474  1.00  0.00     0.000 C 
ATOM   7173  C26 DYP    81     -44.371 -52.310   9.033  1.00  0.00     0.000 C 
ATOM   7174  C27 DYP    81     -45.692 -52.224   8.418  1.00  0.00     0.004 C 
ATOM   7175  C28 DYP    81     -45.554 -52.500   6.941  1.00  0.00     0.027 C 
ATOM   7176  C29 DYP    81     -44.805 -51.645   5.979  1.00  0.00    -0.031 C 
ATOM   7177  C31 DYP    81     -41.366 -49.067  14.478  1.00  0.00     0.258 C 
ATOM   7178  O31 DYP    81     -40.893 -49.090  15.547  1.00  0.00    -0.319 OA
ATOM   7179  C32 DYP    81     -40.092 -48.651  13.677  1.00  0.00     0.111 C 
ATOM   7180  O32 DYP    81     -42.591 -49.137  14.210  1.00  0.00    -0.265 OA
ATOM   7181  C33 DYP    81     -39.802 -49.697  12.790  1.00  0.00     0.010 C 
ATOM   7182  C34 DYP    81     -39.020 -49.098  11.656  1.00  0.00     0.000 C 
ATOM   7183  C35 DYP    81     -38.599 -50.157  10.713  1.00  0.00     0.000 C 
ATOM   7184  C36 DYP    81     -39.050 -49.881   9.382  1.00  0.00     0.000 C 
ATOM   7185  C37 DYP    81     -40.415 -50.351   9.562  1.00  0.00     0.004 C 
ATOM   7186  C38 DYP    81     -40.832 -50.836   8.239  1.00  0.00     0.027 C 
ATOM   7187  C39 DYP    81     -41.282 -49.839   7.299  1.00  0.00    -0.031 C 
ATOM   7188  C21 DYP    81     -45.209 -50.751   5.052  1.00  0.00    -0.031 C 
ATOM   7189  C21 DYP    81     -46.533 -50.233   4.584  1.00  0.00     0.027 C 
ATOM   7190  C21 DYP    81     -46.645 -50.220   3.031  1.00  0.00     0.004 C 
ATOM   7191  C21 DYP    81     -46.073 -49.122   2.263  1.00  0.00     0.000 C 
ATOM   7192  C21 DYP    81     -46.285 -49.228   0.762  1.00  0.00    -0.000 C 
ATOM   7193  C21 DYP    81     -44.999 -49.504   0.071  1.00  0.00    -0.005 C 
ATOM   7194  C21 DYP    81     -43.956 -48.428   0.372  1.00  0.00     0.005 C 
ATOM   7195  C31 DYP    81     -40.620 -49.478   6.243  1.00  0.00    -0.031 C 
ATOM   7196  C31 DYP    81     -39.291 -49.864   5.605  1.00  0.00     0.027 C 
ATOM   7197  C31 DYP    81     -39.499 -50.705   4.324  1.00  0.00     0.004 C 
ATOM   7198  C31 DYP    81     -40.556 -51.759   4.627  1.00  0.00     0.000 C 
ATOM   7199  C31 DYP    81     -40.637 -52.928   3.666  1.00  0.00    -0.000 C 
ATOM   7200  C31 DYP    81     -40.949 -52.490   2.254  1.00  0.00    -0.005 C 
ATOM   7201  C31 DYP    81     -41.334 -53.652   1.361  1.00  0.00     0.005 C 
ATOM   7202  C1  ERG    82      48.969  50.925  15.416  1.00  0.00     0.017 C 
ATOM   7203  C2  ERG    82      48.793  50.872  16.873  1.00  0.00     0.033 C 
ATOM   7204  C3  ERG    82      47.645  51.733  17.076  1.00  0.00     0.122 C 
ATOM   7205  O3  ERG    82      47.952  51.884  18.501  1.00  0.00    -0.395 OA
ATOM   7206  C4  ERG    82      46.304  51.274  16.257  1.00  0.00     0.066 C 
ATOM   7207  C5  ERG    82      46.522  51.297  14.870  1.00  0.00    -0.069 A 
ATOM   7208  C6  ERG    82      45.812  52.111  14.078  1.00  0.00     0.004 A 
ATOM   7209  C7  ERG    82      46.159  52.318  12.816  1.00  0.00     0.004 A 
ATOM   7210  C8  ERG    82      47.238  51.704  12.288  1.00  0.00    -0.070 A 
ATOM   7211  C9  ERG    82      48.110  50.716  13.106  1.00  0.00     0.027 A 
ATOM   7212  C10 ERG    82      47.744  50.472  14.575  1.00  0.00    -0.013 A 
ATOM   7213  C11 ERG    82      48.342  49.391  12.351  1.00  0.00     0.011 C 
ATOM   7214  C12 ERG    82      48.719  49.592  10.881  1.00  0.00     0.011 C 
ATOM   7215  C13 ERG    82      47.823  50.613  10.149  1.00  0.00    -0.032 C 
ATOM   7216  C14 ERG    82      47.765  51.907  10.940  1.00  0.00     0.023 C 
ATOM   7217  C15 ERG    82      47.099  52.927  10.011  1.00  0.00     0.010 C 
ATOM   7218  C16 ERG    82      47.742  52.606   8.668  1.00  0.00     0.007 C 
ATOM   7219  C17 ERG    82      48.382  51.187   8.810  1.00  0.00     0.002 C 
ATOM   7220  C18 ERG    82      46.390  50.008   9.973  1.00  0.00     0.016 C 
ATOM   7221  C19 ERG    82      47.450  48.971  14.916  1.00  0.00     0.021 C 
ATOM   7222  C20 ERG    82      48.174  50.360   7.537  1.00  0.00     0.008 C 
ATOM   7223  C21 ERG    82      48.940  49.023   7.645  1.00  0.00     0.014 C 
ATOM   7224  C22 ERG    82      48.561  50.953   6.178  1.00  0.00    -0.026 C 
ATOM   7225  C23 ERG    82      47.746  51.628   5.340  1.00  0.00    -0.026 C 
ATOM   7226  C24 ERG    82      48.190  52.151   3.978  1.00  0.00     0.007 C 
ATOM   7227  C25 ERG    82      48.042  50.944   3.026  1.00  0.00    -0.015 C 
ATOM   7228  C26 ERG    82      46.593  50.430   2.824  1.00  0.00     0.010 C 
ATOM   7229  C27 ERG    82      48.647  51.239   1.652  1.00  0.00     0.010 C 
ATOM   7230  C28 ERG    82      47.403  53.366   3.435  1.00  0.00     0.014 C 
ATOM   7231  H3' ERG    82      47.126  51.722  18.992  1.00  0.00     0.210 HD
ATOM   7232  N   DYP    83       1.610   6.487 -18.522  1.00  0.00    -0.077 N 
ATOM   7233  P   DYP    83       5.661   8.935 -19.398  1.00  0.00     0.408 P 
ATOM   7234  C1  DYP    83       6.585   7.579 -17.334  1.00  0.00     0.216 C 
ATOM   7235  C2  DYP    83       5.418   7.042 -16.443  1.00  0.00     0.180 C 
ATOM   7236  C3  DYP    83       5.637   5.530 -16.147  1.00  0.00     0.213 C 
ATOM   7237  C11 DYP    83       3.635   7.458 -19.963  1.00  0.00     0.209 C 
ATOM   7238  O11 DYP    83       6.316   8.841 -17.951  1.00  0.00    -0.287 OA
ATOM   7239  C12 DYP    83       2.109   7.213 -19.772  1.00  0.00     0.262 C 
ATOM   7240  O12 DYP    83       4.171   8.405 -19.043  1.00  0.00    -0.288 OA
ATOM   7241  C13 DYP    83       1.567   7.435 -17.378  1.00  0.00     0.271 C 
ATOM   7242  O13 DYP    83       5.560  10.349 -19.838  1.00  0.00    -0.624 OA
ATOM   7243  C14 DYP    83       2.504   5.329 -18.192  1.00  0.00     0.271 C 
ATOM   7244  O14 DYP    83       6.321   7.976 -20.314  1.00  0.00    -0.624 OA
ATOM   7245  C15 DYP    83       0.211   6.006 -18.745  1.00  0.00     0.271 C 
ATOM   7246  C21 DYP    83       4.234   7.635 -14.484  1.00  0.00     0.259 C 
ATOM   7247  O21 DYP    83       5.327   7.796 -15.218  1.00  0.00    -0.312 OA
ATOM   7248  C22 DYP    83       4.360   8.545 -13.244  1.00  0.00     0.111 C 
ATOM   7249  O22 DYP    83       3.281   6.934 -14.789  1.00  0.00    -0.265 OA
ATOM   7250  C23 DYP    83       3.047   9.266 -12.846  1.00  0.00     0.010 C 
ATOM   7251  C24 DYP    83       2.022   8.380 -12.109  1.00  0.00     0.000 C 
ATOM   7252  C25 DYP    83       2.387   7.957 -10.669  1.00  0.00     0.000 C 
ATOM   7253  C26 DYP    83       1.319   7.057 -10.005  1.00  0.00     0.000 C 
ATOM   7254  C27 DYP    83       0.377   7.756  -8.987  1.00  0.00     0.004 C 
ATOM   7255  C28 DYP    83       1.057   8.175  -7.654  1.00  0.00     0.027 C 
ATOM   7256  C29 DYP    83       0.145   8.840  -6.638  1.00  0.00    -0.031 C 
ATOM   7257  C31 DYP    83       7.897   5.177 -15.550  1.00  0.00     0.258 C 
ATOM   7258  O31 DYP    83       6.643   5.341 -15.139  1.00  0.00    -0.319 OA
ATOM   7259  C32 DYP    83       8.814   5.041 -14.333  1.00  0.00     0.111 C 
ATOM   7260  O32 DYP    83       8.251   5.114 -16.711  1.00  0.00    -0.265 OA
ATOM   7261  C33 DYP    83       8.267   5.722 -13.048  1.00  0.00     0.010 C 
ATOM   7262  C34 DYP    83       8.106   7.242 -13.143  1.00  0.00     0.000 C 
ATOM   7263  C35 DYP    83       8.115   7.972 -11.785  1.00  0.00     0.000 C 
ATOM   7264  C36 DYP    83       7.205   7.344 -10.707  1.00  0.00     0.000 C 
ATOM   7265  C37 DYP    83       6.860   8.350  -9.583  1.00  0.00     0.004 C 
ATOM   7266  C38 DYP    83       6.286   7.780  -8.265  1.00  0.00     0.027 C 
ATOM   7267  C39 DYP    83       5.013   6.984  -8.404  1.00  0.00    -0.031 C 
ATOM   7268  C21 DYP    83       0.009   8.554  -5.324  1.00  0.00    -0.031 C 
ATOM   7269  C21 DYP    83       0.740   7.493  -4.539  1.00  0.00     0.027 C 
ATOM   7270  C21 DYP    83      -0.172   6.303  -4.181  1.00  0.00     0.004 C 
ATOM   7271  C21 DYP    83       0.579   5.073  -3.653  1.00  0.00     0.000 C 
ATOM   7272  C21 DYP    83      -0.314   4.135  -2.828  1.00  0.00    -0.000 C 
ATOM   7273  C21 DYP    83       0.406   2.887  -2.307  1.00  0.00    -0.005 C 
ATOM   7274  C21 DYP    83      -0.590   1.905  -1.701  1.00  0.00     0.005 C 
ATOM   7275  C31 DYP    83       4.864   5.676  -8.118  1.00  0.00    -0.031 C 
ATOM   7276  C31 DYP    83       5.948   4.757  -7.607  1.00  0.00     0.027 C 
ATOM   7277  C31 DYP    83       5.965   4.592  -6.067  1.00  0.00     0.004 C 
ATOM   7278  C31 DYP    83       6.730   5.699  -5.319  1.00  0.00     0.000 C 
ATOM   7279  C31 DYP    83       6.495   5.693  -3.807  1.00  0.00    -0.000 C 
ATOM   7280  C31 DYP    83       7.512   4.877  -3.002  1.00  0.00    -0.005 C 
ATOM   7281  C31 DYP    83       7.024   4.694  -1.562  1.00  0.00     0.005 C 
ATOM   7282  P   POP    84      14.214  -3.134 -20.135  1.00  0.00     0.408 P 
ATOM   7283  C1  POP    84      12.966  -1.557 -18.357  1.00  0.00     0.216 C 
ATOM   7284  C2  POP    84      13.208  -1.666 -16.810  1.00  0.00     0.180 C 
ATOM   7285  O2  POP    84      12.971  -2.040 -23.895  1.00  0.00    -0.390 OA
ATOM   7286  C3  POP    84      12.412  -2.838 -16.188  1.00  0.00     0.213 C 
ATOM   7287  O3  POP    84      13.627  -4.023 -25.947  1.00  0.00    -0.390 OA
ATOM   7288  O4  POP    84      11.027  -5.135 -25.940  1.00  0.00    -0.390 OA
ATOM   7289  O5  POP    84       9.450  -5.151 -23.636  1.00  0.00    -0.390 OA
ATOM   7290  O6  POP    84      10.597  -4.417 -21.159  1.00  0.00    -0.390 OA
ATOM   7291  C11 POP    84      12.709  -3.825 -22.246  1.00  0.00     0.197 C 
ATOM   7292  O11 POP    84      14.108  -1.887 -19.155  1.00  0.00    -0.287 OA
ATOM   7293  C12 POP    84      13.362  -3.359 -23.554  1.00  0.00     0.181 C 
ATOM   7294  O12 POP    84      12.981  -2.869 -21.193  1.00  0.00    -0.279 OA
ATOM   7295  C13 POP    84      13.008  -4.337 -24.679  1.00  0.00     0.180 C 
ATOM   7296  O13 POP    84      15.467  -3.083 -20.919  1.00  0.00    -0.624 OA
ATOM   7297  C14 POP    84      11.479  -4.384 -24.804  1.00  0.00     0.180 C 
ATOM   7298  O14 POP    84      13.858  -4.368 -19.415  1.00  0.00    -0.624 OA
ATOM   7299  C15 POP    84      10.858  -4.910 -23.520  1.00  0.00     0.180 C 
ATOM   7300  C16 POP    84      11.196  -3.959 -22.380  1.00  0.00     0.181 C 
ATOM   7301  C21 POP    84      15.222  -0.666 -16.457  1.00  0.00     0.259 C 
ATOM   7302  O21 POP    84      14.601  -1.825 -16.504  1.00  0.00    -0.312 OA
ATOM   7303  C22 POP    84      16.686  -0.873 -16.117  1.00  0.00     0.111 C 
ATOM   7304  O22 POP    84      14.700   0.434 -16.549  1.00  0.00    -0.265 OA
ATOM   7305  C23 POP    84      16.886  -1.854 -14.934  1.00  0.00     0.010 C 
ATOM   7306  C24 POP    84      16.238  -1.437 -13.606  1.00  0.00     0.000 C 
ATOM   7307  C25 POP    84      16.990  -2.028 -12.417  1.00  0.00     0.000 C 
ATOM   7308  C26 POP    84      16.180  -1.927 -11.126  1.00  0.00     0.000 C 
ATOM   7309  C27 POP    84      16.988  -2.493  -9.950  1.00  0.00     0.004 C 
ATOM   7310  C28 POP    84      16.160  -2.836  -8.693  1.00  0.00     0.027 C 
ATOM   7311  C29 POP    84      15.278  -1.743  -8.153  1.00  0.00    -0.031 C 
ATOM   7312  C31 POP    84      13.396  -4.386 -14.719  1.00  0.00     0.258 C 
ATOM   7313  O31 POP    84      12.866  -3.170 -14.853  1.00  0.00    -0.319 OA
ATOM   7314  C32 POP    84      13.511  -4.784 -13.254  1.00  0.00     0.111 C 
ATOM   7315  O32 POP    84      13.648  -5.157 -15.618  1.00  0.00    -0.265 OA
ATOM   7316  C33 POP    84      12.180  -4.566 -12.513  1.00  0.00     0.010 C 
ATOM   7317  C34 POP    84      12.268  -4.688 -10.986  1.00  0.00     0.000 C 
ATOM   7318  C35 POP    84      11.375  -3.627 -10.335  1.00  0.00     0.000 C 
ATOM   7319  C36 POP    84      12.015  -2.228 -10.411  1.00  0.00     0.000 C 
ATOM   7320  C37 POP    84      11.218  -1.096  -9.750  1.00  0.00     0.000 C 
ATOM   7321  C38 POP    84      11.966   0.239  -9.948  1.00  0.00     0.000 C 
ATOM   7322  C39 POP    84      11.342   1.498  -9.319  1.00  0.00     0.000 C 
ATOM   7323  C21 POP    84      14.767  -1.700  -6.908  1.00  0.00    -0.031 C 
ATOM   7324  C21 POP    84      14.942  -2.701  -5.792  1.00  0.00     0.027 C 
ATOM   7325  C21 POP    84      13.562  -3.175  -5.297  1.00  0.00     0.004 C 
ATOM   7326  C21 POP    84      12.879  -4.252  -6.163  1.00  0.00     0.000 C 
ATOM   7327  C21 POP    84      11.757  -4.968  -5.390  1.00  0.00     0.000 C 
ATOM   7328  C21 POP    84      10.756  -3.981  -4.783  1.00  0.00     0.000 C 
ATOM   7329  C21 POP    84       9.425  -4.639  -4.385  1.00  0.00    -0.000 C 
ATOM   7330  C21 POP    84       8.274  -3.634  -4.320  1.00  0.00    -0.005 C 
ATOM   7331  C21 POP    84       8.307  -2.856  -3.010  1.00  0.00     0.005 C 
ATOM   7332  C31 POP    84      10.863   1.336  -7.869  1.00  0.00     0.000 C 
ATOM   7333  C31 POP    84      11.965   1.308  -6.805  1.00  0.00     0.000 C 
ATOM   7334  C31 POP    84      11.463   0.775  -5.464  1.00  0.00     0.000 C 
ATOM   7335  C31 POP    84      12.607   0.798  -4.448  1.00  0.00     0.000 C 
ATOM   7336  C31 POP    84      12.183   0.351  -3.056  1.00  0.00    -0.000 C 
ATOM   7337  C31 POP    84      13.350   0.359  -2.070  1.00  0.00    -0.005 C 
ATOM   7338  C31 POP    84      12.879  -0.032  -0.676  1.00  0.00     0.005 C 
ATOM   7339  HO2 POP    84      13.557  -1.470 -23.383  1.00  0.00     0.210 HD
ATOM   7340  HO3 POP    84      14.580  -3.974 -25.922  1.00  0.00     0.210 HD
ATOM   7341  HO4 POP    84      10.310  -4.651 -26.365  1.00  0.00     0.210 HD
ATOM   7342  HO5 POP    84       9.352  -5.941 -24.177  1.00  0.00     0.210 HD
ATOM   7343  HO6 POP    84      10.691  -5.370 -21.156  1.00  0.00     0.210 HD
ATOM   7344  N   POP    85      -0.659 -17.028 -20.064  1.00  0.00    -0.063 N 
ATOM   7345  P   POP    85      -3.224 -13.490 -19.967  1.00  0.00     0.408 P 
ATOM   7346  C1  POP    85      -5.635 -13.265 -18.903  1.00  0.00     0.216 C 
ATOM   7347  C2  POP    85      -6.113 -13.397 -17.415  1.00  0.00     0.180 C 
ATOM   7348  C3  POP    85      -7.163 -14.546 -17.222  1.00  0.00     0.213 C 
ATOM   7349  C11 POP    85      -2.157 -15.534 -18.865  1.00  0.00     0.225 C 
ATOM   7350  O11 POP    85      -4.463 -14.048 -19.145  1.00  0.00    -0.287 OA
ATOM   7351  C12 POP    85      -0.762 -16.158 -18.863  1.00  0.00     0.307 C 
ATOM   7352  O12 POP    85      -2.322 -14.797 -20.083  1.00  0.00    -0.287 OA
ATOM   7353  C13 POP    85      -0.567 -16.865 -17.522  1.00  0.00     0.206 C 
ATOM   7354  O13 POP    85      -3.677 -12.979 -21.285  1.00  0.00    -0.624 OA
ATOM   7355  O13 POP    85      -0.375 -18.107 -17.530  1.00  0.00    -0.646 OA
ATOM   7356  O13 POP    85      -0.600 -16.151 -16.492  1.00  0.00    -0.646 OA
ATOM   7357  O14 POP    85      -2.492 -12.524 -19.136  1.00  0.00    -0.624 OA
ATOM   7358  C21 POP    85      -4.151 -12.610 -16.419  1.00  0.00     0.259 C 
ATOM   7359  O21 POP    85      -5.004 -13.629 -16.518  1.00  0.00    -0.312 OA
ATOM   7360  C22 POP    85      -2.891 -13.025 -15.644  1.00  0.00     0.111 C 
ATOM   7361  O22 POP    85      -4.355 -11.479 -16.830  1.00  0.00    -0.265 OA
ATOM   7362  C23 POP    85      -2.778 -12.364 -14.245  1.00  0.00     0.010 C 
ATOM   7363  C24 POP    85      -1.320 -12.446 -13.773  1.00  0.00     0.000 C 
ATOM   7364  C25 POP    85      -1.032 -12.425 -12.264  1.00  0.00     0.000 C 
ATOM   7365  C26 POP    85      -1.741 -13.543 -11.486  1.00  0.00     0.000 C 
ATOM   7366  C27 POP    85      -1.550 -13.464  -9.953  1.00  0.00     0.004 C 
ATOM   7367  C28 POP    85      -1.760 -14.790  -9.196  1.00  0.00     0.027 C 
ATOM   7368  C29 POP    85      -3.092 -15.422  -9.522  1.00  0.00    -0.031 C 
ATOM   7369  C31 POP    85      -8.006 -13.930 -15.071  1.00  0.00     0.258 C 
ATOM   7370  O31 POP    85      -7.453 -14.875 -15.830  1.00  0.00    -0.319 OA
ATOM   7371  C32 POP    85      -8.384 -14.488 -13.673  1.00  0.00     0.111 C 
ATOM   7372  O32 POP    85      -8.297 -12.805 -15.432  1.00  0.00    -0.265 OA
ATOM   7373  C33 POP    85      -7.691 -13.709 -12.533  1.00  0.00     0.010 C 
ATOM   7374  C34 POP    85      -8.028 -14.153 -11.097  1.00  0.00     0.000 C 
ATOM   7375  C35 POP    85      -7.129 -13.436 -10.071  1.00  0.00     0.000 C 
ATOM   7376  C36 POP    85      -7.444 -13.776  -8.610  1.00  0.00     0.000 C 
ATOM   7377  C37 POP    85      -6.462 -13.086  -7.653  1.00  0.00     0.000 C 
ATOM   7378  C38 POP    85      -6.667 -11.576  -7.503  1.00  0.00     0.000 C 
ATOM   7379  C39 POP    85      -5.505 -10.972  -6.694  1.00  0.00     0.000 C 
ATOM   7380  C21 POP    85      -4.041 -15.869  -8.686  1.00  0.00    -0.031 C 
ATOM   7381  C21 POP    85      -4.049 -15.864  -7.178  1.00  0.00     0.027 C 
ATOM   7382  C21 POP    85      -3.531 -17.190  -6.585  1.00  0.00     0.004 C 
ATOM   7383  C21 POP    85      -4.462 -18.404  -6.803  1.00  0.00     0.000 C 
ATOM   7384  C21 POP    85      -5.971 -18.200  -6.528  1.00  0.00     0.000 C 
ATOM   7385  C21 POP    85      -6.340 -17.936  -5.057  1.00  0.00     0.000 C 
ATOM   7386  C21 POP    85      -6.019 -19.128  -4.141  1.00  0.00    -0.000 C 
ATOM   7387  C21 POP    85      -6.196 -18.792  -2.652  1.00  0.00    -0.005 C 
ATOM   7388  C21 POP    85      -5.854 -19.857  -1.607  1.00  0.00     0.005 C 
ATOM   7389  C31 POP    85      -4.196 -10.736  -7.475  1.00  0.00     0.000 C 
ATOM   7390  C31 POP    85      -2.965 -10.636  -6.549  1.00  0.00     0.000 C 
ATOM   7391  C31 POP    85      -2.534 -12.011  -5.984  1.00  0.00     0.000 C 
ATOM   7392  C31 POP    85      -2.366 -12.086  -4.450  1.00  0.00     0.000 C 
ATOM   7393  C31 POP    85      -1.937 -13.491  -3.975  1.00  0.00    -0.000 C 
ATOM   7394  C31 POP    85      -1.643 -13.636  -2.468  1.00  0.00    -0.005 C 
ATOM   7395  C31 POP    85      -2.799 -13.225  -1.552  1.00  0.00     0.005 C 
ATOM   7396  HN1 POP    85      -1.412 -17.731 -19.954  1.00  0.00     0.275 HD
ATOM   7397  HN2 POP    85      -0.822 -16.436 -20.911  1.00  0.00     0.275 HD
ATOM   7398  HN3 POP    85       0.279 -17.461 -20.001  1.00  0.00     0.275 HD
ATOM   7399  P   YOP    86      13.102   7.767 -19.127  1.00  0.00     0.406 P 
ATOM   7400  C1  YOP    86      13.703  10.228 -18.619  1.00  0.00     0.216 C 
ATOM   7401  C2  YOP    86      14.108  11.137 -17.422  1.00  0.00     0.180 C 
ATOM   7402  C3  YOP    86      12.895  11.545 -16.533  1.00  0.00     0.213 C 
ATOM   7403  O11 YOP    86      13.407   8.928 -18.132  1.00  0.00    -0.287 OA
ATOM   7404  O12 YOP    86      12.279   6.767 -18.218  1.00  0.00    -0.300 OA
ATOM   7405  O13 YOP    86      14.311   7.020 -19.552  1.00  0.00    -0.624 OA
ATOM   7406  O14 YOP    86      12.168   8.262 -20.143  1.00  0.00    -0.624 OA
ATOM   7407  C21 YOP    86      16.123   9.955 -17.085  1.00  0.00     0.259 C 
ATOM   7408  O21 YOP    86      15.051  10.503 -16.558  1.00  0.00    -0.312 OA
ATOM   7409  C22 YOP    86      16.814   9.212 -15.954  1.00  0.00     0.111 C 
ATOM   7410  O22 YOP    86      16.593  10.132 -18.196  1.00  0.00    -0.265 OA
ATOM   7411  C23 YOP    86      15.937   8.143 -15.273  1.00  0.00     0.010 C 
ATOM   7412  C24 YOP    86      16.645   7.697 -13.993  1.00  0.00     0.000 C 
ATOM   7413  C25 YOP    86      15.806   6.928 -12.966  1.00  0.00     0.000 C 
ATOM   7414  C26 YOP    86      16.810   6.432 -11.905  1.00  0.00     0.000 C 
ATOM   7415  C27 YOP    86      16.287   6.021 -10.517  1.00  0.00     0.004 C 
ATOM   7416  C28 YOP    86      17.387   5.541  -9.527  1.00  0.00     0.027 C 
ATOM   7417  C29 YOP    86      16.799   5.187  -8.178  1.00  0.00    -0.031 C 
ATOM   7418  C31 YOP    86      11.106  10.516 -15.436  1.00  0.00     0.258 C 
ATOM   7419  O31 YOP    86      12.322  10.378 -15.915  1.00  0.00    -0.319 OA
ATOM   7420  C32 YOP    86      10.671   9.196 -14.824  1.00  0.00     0.111 C 
ATOM   7421  O32 YOP    86      10.461  11.549 -15.414  1.00  0.00    -0.265 OA
ATOM   7422  C33 YOP    86      11.588   8.709 -13.663  1.00  0.00     0.010 C 
ATOM   7423  C34 YOP    86      11.754   9.747 -12.525  1.00  0.00     0.000 C 
ATOM   7424  C35 YOP    86      12.917   9.518 -11.535  1.00  0.00     0.000 C 
ATOM   7425  C36 YOP    86      12.752   8.338 -10.572  1.00  0.00     0.000 C 
ATOM   7426  C37 YOP    86      11.577   8.469  -9.584  1.00  0.00     0.004 C 
ATOM   7427  C38 YOP    86      11.576   9.758  -8.726  1.00  0.00     0.027 C 
ATOM   7428  C39 YOP    86      12.674   9.825  -7.704  1.00  0.00    -0.031 C 
ATOM   7429  C21 YOP    86      16.909   5.851  -7.014  1.00  0.00    -0.031 C 
ATOM   7430  C21 YOP    86      17.663   7.133  -6.782  1.00  0.00     0.027 C 
ATOM   7431  C21 YOP    86      16.951   8.377  -7.339  1.00  0.00     0.004 C 
ATOM   7432  C21 YOP    86      17.607   9.694  -6.898  1.00  0.00     0.000 C 
ATOM   7433  C21 YOP    86      17.502  10.041  -5.421  1.00  0.00     0.000 C 
ATOM   7434  C21 YOP    86      16.170  10.636  -5.107  1.00  0.00     0.000 C 
ATOM   7435  C21 YOP    86      16.213  10.984  -3.699  1.00  0.00    -0.000 C 
ATOM   7436  C21 YOP    86      14.826  11.321  -3.402  1.00  0.00    -0.005 C 
ATOM   7437  C21 YOP    86      15.216  11.601  -2.131  1.00  0.00     0.005 C 
ATOM   7438  C31 YOP    86      12.584   9.356  -6.446  1.00  0.00    -0.031 C 
ATOM   7439  C31 YOP    86      11.390   8.677  -5.811  1.00  0.00     0.027 C 
ATOM   7440  C31 YOP    86      11.656   7.228  -5.333  1.00  0.00     0.004 C 
ATOM   7441  C31 YOP    86      12.410   7.072  -3.989  1.00  0.00     0.000 C 
ATOM   7442  C31 YOP    86      11.826   7.806  -2.762  1.00  0.00    -0.000 C 
ATOM   7443  C31 YOP    86      12.691   7.665  -1.504  1.00  0.00    -0.005 C 
ATOM   7444  C31 YOP    86      12.386   8.773  -0.505  1.00  0.00     0.005 C 
ATOM   7445  H12 YOP    86      12.230   5.910 -18.646  1.00  0.00     0.223 HD
ATOM   7446  N   POP    87      -3.012  15.377 -21.049  1.00  0.00    -0.063 N 
ATOM   7447  P   POP    87      -6.837  15.906 -18.379  1.00  0.00     0.408 P 
ATOM   7448  C1  POP    87      -7.040  15.747 -15.777  1.00  0.00     0.216 C 
ATOM   7449  C2  POP    87      -6.307  16.910 -15.071  1.00  0.00     0.180 C 
ATOM   7450  C3  POP    87      -6.975  17.260 -13.713  1.00  0.00     0.213 C 
ATOM   7451  C11 POP    87      -4.205  16.059 -18.901  1.00  0.00     0.225 C 
ATOM   7452  O11 POP    87      -6.357  15.348 -16.975  1.00  0.00    -0.287 OA
ATOM   7453  C12 POP    87      -3.204  15.061 -19.595  1.00  0.00     0.307 C 
ATOM   7454  O12 POP    87      -5.557  15.890 -19.340  1.00  0.00    -0.287 OA
ATOM   7455  C13 POP    87      -3.603  13.587 -19.341  1.00  0.00     0.206 C 
ATOM   7456  O13 POP    87      -7.864  15.013 -18.956  1.00  0.00    -0.624 OA
ATOM   7457  O13 POP    87      -3.823  12.853 -20.343  1.00  0.00    -0.646 OA
ATOM   7458  O13 POP    87      -3.624  13.194 -18.148  1.00  0.00    -0.646 OA
ATOM   7459  O14 POP    87      -7.256  17.314 -18.212  1.00  0.00    -0.624 OA
ATOM   7460  C21 POP    87      -4.001  17.292 -15.094  1.00  0.00     0.259 C 
ATOM   7461  O21 POP    87      -4.964  16.457 -14.826  1.00  0.00    -0.312 OA
ATOM   7462  C22 POP    87      -2.636  16.573 -14.953  1.00  0.00     0.111 C 
ATOM   7463  O22 POP    87      -4.136  18.471 -15.383  1.00  0.00    -0.265 OA
ATOM   7464  C23 POP    87      -2.646  15.131 -14.370  1.00  0.00     0.010 C 
ATOM   7465  C24 POP    87      -2.643  15.076 -12.836  1.00  0.00     0.000 C 
ATOM   7466  C25 POP    87      -2.795  13.633 -12.349  1.00  0.00     0.000 C 
ATOM   7467  C26 POP    87      -3.007  13.543 -10.834  1.00  0.00     0.000 C 
ATOM   7468  C27 POP    87      -3.456  12.132 -10.418  1.00  0.00     0.004 C 
ATOM   7469  C28 POP    87      -4.047  12.019  -9.001  1.00  0.00     0.027 C 
ATOM   7470  C29 POP    87      -5.287  12.864  -8.858  1.00  0.00    -0.031 C 
ATOM   7471  C31 POP    87      -8.153  15.736 -12.295  1.00  0.00     0.258 C 
ATOM   7472  O31 POP    87      -7.009  16.074 -12.872  1.00  0.00    -0.319 OA
ATOM   7473  C32 POP    87      -8.021  14.359 -11.607  1.00  0.00     0.111 C 
ATOM   7474  O32 POP    87      -9.169  16.406 -12.312  1.00  0.00    -0.265 OA
ATOM   7475  C33 POP    87      -9.358  13.852 -11.011  1.00  0.00     0.010 C 
ATOM   7476  C34 POP    87      -9.849  14.609  -9.770  1.00  0.00     0.000 C 
ATOM   7477  C35 POP    87     -11.083  13.954  -9.146  1.00  0.00     0.000 C 
ATOM   7478  C36 POP    87     -11.247  14.321  -7.669  1.00  0.00     0.000 C 
ATOM   7479  C37 POP    87     -10.152  13.821  -6.713  1.00  0.00     0.000 C 
ATOM   7480  C38 POP    87     -10.558  13.790  -5.236  1.00  0.00     0.000 C 
ATOM   7481  C39 POP    87      -9.338  13.601  -4.325  1.00  0.00     0.000 C 
ATOM   7482  C21 POP    87      -5.411  13.891  -8.005  1.00  0.00    -0.031 C 
ATOM   7483  C21 POP    87      -4.313  14.328  -7.072  1.00  0.00     0.027 C 
ATOM   7484  C21 POP    87      -4.627  15.504  -6.133  1.00  0.00     0.004 C 
ATOM   7485  C21 POP    87      -5.209  16.780  -6.762  1.00  0.00     0.000 C 
ATOM   7486  C21 POP    87      -5.540  17.890  -5.733  1.00  0.00     0.000 C 
ATOM   7487  C21 POP    87      -6.500  17.407  -4.619  1.00  0.00     0.000 C 
ATOM   7488  C21 POP    87      -6.925  18.493  -3.603  1.00  0.00    -0.000 C 
ATOM   7489  C21 POP    87      -7.845  18.018  -2.446  1.00  0.00    -0.005 C 
ATOM   7490  C21 POP    87      -7.308  16.951  -1.477  1.00  0.00     0.005 C 
ATOM   7491  C31 POP    87      -8.880  12.153  -4.073  1.00  0.00     0.000 C 
ATOM   7492  C31 POP    87      -7.644  12.104  -3.140  1.00  0.00     0.000 C 
ATOM   7493  C31 POP    87      -6.509  13.106  -3.491  1.00  0.00     0.000 C 
ATOM   7494  C31 POP    87      -5.074  12.799  -3.005  1.00  0.00     0.000 C 
ATOM   7495  C31 POP    87      -4.974  12.327  -1.563  1.00  0.00    -0.000 C 
ATOM   7496  C31 POP    87      -5.087  13.527  -0.614  1.00  0.00    -0.005 C 
ATOM   7497  C31 POP    87      -5.397  13.062   0.748  1.00  0.00     0.005 C 
ATOM   7498  HN1 POP    87      -2.767  16.370 -21.200  1.00  0.00     0.275 HD
ATOM   7499  HN2 POP    87      -2.256  14.743 -21.389  1.00  0.00     0.275 HD
ATOM   7500  HN3 POP    87      -3.908  15.113 -21.512  1.00  0.00     0.275 HD
ATOM   7501  C1  ERG    88       9.802 -16.737 -15.306  1.00  0.00     0.017 C 
ATOM   7502  C2  ERG    88       9.831 -16.718 -16.853  1.00  0.00     0.033 C 
ATOM   7503  C3  ERG    88      10.923 -15.738 -17.301  1.00  0.00     0.122 C 
ATOM   7504  O3  ERG    88      10.910 -15.540 -18.709  1.00  0.00    -0.395 OA
ATOM   7505  C4  ERG    88      12.268 -16.316 -16.828  1.00  0.00     0.066 C 
ATOM   7506  C5  ERG    88      12.261 -16.319 -15.311  1.00  0.00    -0.069 A 
ATOM   7507  C6  ERG    88      13.108 -15.561 -14.596  1.00  0.00     0.004 A 
ATOM   7508  C7  ERG    88      13.044 -15.390 -13.254  1.00  0.00     0.004 A 
ATOM   7509  C8  ERG    88      12.088 -15.926 -12.469  1.00  0.00    -0.070 A 
ATOM   7510  C9  ERG    88      11.033 -16.852 -13.057  1.00  0.00     0.027 A 
ATOM   7511  C10 ERG    88      11.146 -17.132 -14.616  1.00  0.00    -0.013 A 
ATOM   7512  C11 ERG    88      11.003 -18.089 -12.110  1.00  0.00     0.011 C 
ATOM   7513  C12 ERG    88      10.745 -17.797 -10.604  1.00  0.00     0.011 C 
ATOM   7514  C13 ERG    88      11.790 -16.810 -10.039  1.00  0.00    -0.032 C 
ATOM   7515  C14 ERG    88      11.841 -15.623 -10.998  1.00  0.00     0.023 C 
ATOM   7516  C15 ERG    88      12.651 -14.517 -10.283  1.00  0.00     0.010 C 
ATOM   7517  C16 ERG    88      12.385 -14.782  -8.789  1.00  0.00     0.007 C 
ATOM   7518  C17 ERG    88      11.491 -16.075  -8.701  1.00  0.00     0.002 C 
ATOM   7519  C18 ERG    88      13.196 -17.459  -9.953  1.00  0.00     0.016 C 
ATOM   7520  C19 ERG    88      11.544 -18.617 -14.888  1.00  0.00     0.021 C 
ATOM   7521  C20 ERG    88      11.607 -16.867  -7.371  1.00  0.00     0.008 C 
ATOM   7522  C21 ERG    88      10.332 -17.692  -7.061  1.00  0.00     0.014 C 
ATOM   7523  C22 ERG    88      11.847 -15.969  -6.156  1.00  0.00    -0.026 C 
ATOM   7524  C23 ERG    88      12.954 -16.050  -5.375  1.00  0.00    -0.026 C 
ATOM   7525  C24 ERG    88      13.374 -15.234  -4.140  1.00  0.00     0.007 C 
ATOM   7526  C25 ERG    88      13.579 -15.892  -2.745  1.00  0.00    -0.015 C 
ATOM   7527  C26 ERG    88      12.221 -16.223  -2.091  1.00  0.00     0.010 C 
ATOM   7528  C27 ERG    88      14.490 -17.149  -2.697  1.00  0.00     0.010 C 
ATOM   7529  C28 ERG    88      14.720 -14.569  -4.549  1.00  0.00     0.014 C 
ATOM   7530  H3' ERG    88      11.492 -14.785 -18.845  1.00  0.00     0.210 HD
ATOM   7531  N   DYP    89     -14.962  12.930 -20.740  1.00  0.00    -0.077 N 
ATOM   7532  P   DYP    89     -15.326  11.041 -17.146  1.00  0.00     0.408 P 
ATOM   7533  C1  DYP    89     -13.888   9.415 -15.582  1.00  0.00     0.216 C 
ATOM   7534  C2  DYP    89     -14.638   9.497 -14.215  1.00  0.00     0.180 C 
ATOM   7535  C3  DYP    89     -14.980   8.088 -13.635  1.00  0.00     0.213 C 
ATOM   7536  C11 DYP    89     -13.926  10.914 -19.315  1.00  0.00     0.209 C 
ATOM   7537  O11 DYP    89     -14.016  10.601 -16.362  1.00  0.00    -0.287 OA
ATOM   7538  C12 DYP    89     -13.886  12.402 -19.778  1.00  0.00     0.262 C 
ATOM   7539  O12 DYP    89     -15.100  10.550 -18.618  1.00  0.00    -0.288 OA
ATOM   7540  C13 DYP    89     -16.318  12.667 -20.162  1.00  0.00     0.271 C 
ATOM   7541  O13 DYP    89     -16.527  10.338 -16.654  1.00  0.00    -0.624 OA
ATOM   7542  C14 DYP    89     -14.893  12.249 -22.074  1.00  0.00     0.271 C 
ATOM   7543  O14 DYP    89     -15.370  12.519 -17.225  1.00  0.00    -0.624 OA
ATOM   7544  C15 DYP    89     -14.840  14.400 -20.909  1.00  0.00     0.271 C 
ATOM   7545  C21 DYP    89     -14.020  11.504 -13.176  1.00  0.00     0.259 C 
ATOM   7546  O21 DYP    89     -13.804  10.198 -13.263  1.00  0.00    -0.312 OA
ATOM   7547  C22 DYP    89     -12.956  12.123 -12.264  1.00  0.00     0.111 C 
ATOM   7548  O22 DYP    89     -14.928  12.126 -13.686  1.00  0.00    -0.265 OA
ATOM   7549  C23 DYP    89     -13.126  13.655 -12.117  1.00  0.00     0.010 C 
ATOM   7550  C24 DYP    89     -14.194  14.082 -11.106  1.00  0.00     0.000 C 
ATOM   7551  C25 DYP    89     -14.307  15.616 -11.040  1.00  0.00     0.000 C 
ATOM   7552  C26 DYP    89     -15.482  16.140 -10.196  1.00  0.00     0.000 C 
ATOM   7553  C27 DYP    89     -15.444  15.727  -8.714  1.00  0.00     0.004 C 
ATOM   7554  C28 DYP    89     -16.725  16.103  -7.941  1.00  0.00     0.027 C 
ATOM   7555  C29 DYP    89     -16.622  15.569  -6.532  1.00  0.00    -0.031 C 
ATOM   7556  C31 DYP    89     -15.479   7.715 -11.287  1.00  0.00     0.258 C 
ATOM   7557  O31 DYP    89     -15.818   8.248 -12.462  1.00  0.00    -0.319 OA
ATOM   7558  C32 DYP    89     -16.473   8.223 -10.207  1.00  0.00     0.111 C 
ATOM   7559  O32 DYP    89     -14.560   6.942 -11.100  1.00  0.00    -0.265 OA
ATOM   7560  C33 DYP    89     -15.923   8.259  -8.750  1.00  0.00     0.010 C 
ATOM   7561  C34 DYP    89     -14.802   9.290  -8.499  1.00  0.00     0.000 C 
ATOM   7562  C35 DYP    89     -15.228  10.766  -8.581  1.00  0.00     0.000 C 
ATOM   7563  C36 DYP    89     -14.158  11.803  -8.202  1.00  0.00     0.000 C 
ATOM   7564  C37 DYP    89     -13.767  11.868  -6.720  1.00  0.00     0.004 C 
ATOM   7565  C38 DYP    89     -14.877  12.075  -5.701  1.00  0.00     0.027 C 
ATOM   7566  C39 DYP    89     -14.264  12.525  -4.389  1.00  0.00    -0.031 C 
ATOM   7567  C21 DYP    89     -17.392  14.622  -5.952  1.00  0.00    -0.031 C 
ATOM   7568  C21 DYP    89     -18.560  13.829  -6.519  1.00  0.00     0.027 C 
ATOM   7569  C21 DYP    89     -18.811  12.559  -5.649  1.00  0.00     0.004 C 
ATOM   7570  C21 DYP    89     -19.938  11.601  -6.119  1.00  0.00     0.000 C 
ATOM   7571  C21 DYP    89     -20.056  10.237  -5.389  1.00  0.00    -0.000 C 
ATOM   7572  C21 DYP    89     -20.065  10.336  -3.862  1.00  0.00    -0.005 C 
ATOM   7573  C21 DYP    89     -20.623   9.088  -3.150  1.00  0.00     0.005 C 
ATOM   7574  C31 DYP    89     -14.137  11.778  -3.287  1.00  0.00    -0.031 C 
ATOM   7575  C31 DYP    89     -14.577  10.345  -3.121  1.00  0.00     0.027 C 
ATOM   7576  C31 DYP    89     -15.794  10.346  -2.191  1.00  0.00     0.004 C 
ATOM   7577  C31 DYP    89     -16.368   8.950  -1.927  1.00  0.00     0.000 C 
ATOM   7578  C31 DYP    89     -17.693   8.978  -1.155  1.00  0.00    -0.000 C 
ATOM   7579  C31 DYP    89     -17.640   9.641   0.229  1.00  0.00    -0.005 C 
ATOM   7580  C31 DYP    89     -18.763   9.175   1.174  1.00  0.00     0.005 C 
ATOM   7581  P   POP    90     -18.321  -5.974 -20.197  1.00  0.00     0.408 P 
ATOM   7582  C1  POP    90     -19.658  -6.224 -18.061  1.00  0.00     0.216 C 
ATOM   7583  C2  POP    90     -19.642  -6.729 -16.613  1.00  0.00     0.180 C 
ATOM   7584  O2  POP    90     -22.178  -5.834 -21.738  1.00  0.00    -0.390 OA
ATOM   7585  C3  POP    90     -19.156  -8.187 -16.452  1.00  0.00     0.213 C 
ATOM   7586  O3  POP    90     -22.378  -3.624 -23.446  1.00  0.00    -0.390 OA
ATOM   7587  O4  POP    90     -21.942  -5.060 -25.899  1.00  0.00    -0.390 OA
ATOM   7588  O5  POP    90     -20.663  -7.530 -25.806  1.00  0.00    -0.390 OA
ATOM   7589  O6  POP    90     -18.949  -8.079 -23.567  1.00  0.00    -0.390 OA
ATOM   7590  C11 POP    90     -19.787  -6.110 -22.396  1.00  0.00     0.197 C 
ATOM   7591  O11 POP    90     -18.512  -6.696 -18.787  1.00  0.00    -0.287 OA
ATOM   7592  C12 POP    90     -20.996  -5.186 -22.262  1.00  0.00     0.181 C 
ATOM   7593  O12 POP    90     -19.551  -6.640 -21.079  1.00  0.00    -0.279 OA
ATOM   7594  C13 POP    90     -21.311  -4.555 -23.597  1.00  0.00     0.180 C 
ATOM   7595  O13 POP    90     -18.624  -4.530 -20.052  1.00  0.00    -0.624 OA
ATOM   7596  C14 POP    90     -21.587  -5.625 -24.636  1.00  0.00     0.180 C 
ATOM   7597  O14 POP    90     -17.027  -6.375 -20.775  1.00  0.00    -0.624 OA
ATOM   7598  C15 POP    90     -20.390  -6.544 -24.789  1.00  0.00     0.180 C 
ATOM   7599  C16 POP    90     -20.049  -7.177 -23.441  1.00  0.00     0.181 C 
ATOM   7600  C21 POP    90     -19.314  -5.016 -15.047  1.00  0.00     0.259 C 
ATOM   7601  O21 POP    90     -18.754  -5.880 -15.863  1.00  0.00    -0.312 OA
ATOM   7602  C22 POP    90     -18.223  -4.088 -14.518  1.00  0.00     0.111 C 
ATOM   7603  O22 POP    90     -20.503  -4.916 -14.812  1.00  0.00    -0.265 OA
ATOM   7604  C23 POP    90     -18.205  -4.005 -12.978  1.00  0.00     0.010 C 
ATOM   7605  C24 POP    90     -18.107  -5.368 -12.277  1.00  0.00     0.000 C 
ATOM   7606  C25 POP    90     -17.925  -5.249 -10.749  1.00  0.00     0.000 C 
ATOM   7607  C26 POP    90     -16.716  -6.043 -10.211  1.00  0.00     0.000 C 
ATOM   7608  C27 POP    90     -16.804  -7.574 -10.340  1.00  0.00     0.004 C 
ATOM   7609  C28 POP    90     -17.963  -8.210  -9.555  1.00  0.00     0.027 C 
ATOM   7610  C29 POP    90     -17.694  -8.141  -8.074  1.00  0.00    -0.031 C 
ATOM   7611  C31 POP    90     -18.930  -9.701 -14.646  1.00  0.00     0.258 C 
ATOM   7612  O31 POP    90     -19.111  -8.450 -15.037  1.00  0.00    -0.319 OA
ATOM   7613  C32 POP    90     -18.891  -9.776 -13.115  1.00  0.00     0.111 C 
ATOM   7614  O32 POP    90     -18.798 -10.656 -15.380  1.00  0.00    -0.265 OA
ATOM   7615  C33 POP    90     -20.245 -10.147 -12.473  1.00  0.00     0.010 C 
ATOM   7616  C34 POP    90     -21.180  -8.937 -12.285  1.00  0.00     0.000 C 
ATOM   7617  C35 POP    90     -22.201  -9.164 -11.148  1.00  0.00     0.000 C 
ATOM   7618  C36 POP    90     -23.401  -8.188 -11.105  1.00  0.00     0.000 C 
ATOM   7619  C37 POP    90     -23.067  -6.688 -11.193  1.00  0.00     0.000 C 
ATOM   7620  C38 POP    90     -22.184  -6.205 -10.035  1.00  0.00     0.000 C 
ATOM   7621  C39 POP    90     -21.813  -4.711 -10.136  1.00  0.00     0.000 C 
ATOM   7622  C21 POP    90     -18.581  -8.104  -7.066  1.00  0.00    -0.031 C 
ATOM   7623  C21 POP    90     -20.085  -8.122  -7.192  1.00  0.00     0.027 C 
ATOM   7624  C21 POP    90     -20.825  -7.189  -6.209  1.00  0.00     0.004 C 
ATOM   7625  C21 POP    90     -20.652  -7.546  -4.723  1.00  0.00     0.000 C 
ATOM   7626  C21 POP    90     -21.761  -6.904  -3.882  1.00  0.00     0.000 C 
ATOM   7627  C21 POP    90     -21.507  -6.934  -2.374  1.00  0.00     0.000 C 
ATOM   7628  C21 POP    90     -22.449  -6.004  -1.595  1.00  0.00    -0.000 C 
ATOM   7629  C21 POP    90     -23.942  -6.290  -1.801  1.00  0.00    -0.005 C 
ATOM   7630  C21 POP    90     -24.797  -5.232  -1.108  1.00  0.00     0.005 C 
ATOM   7631  C31 POP    90     -21.126  -4.142  -8.882  1.00  0.00     0.000 C 
ATOM   7632  C31 POP    90     -22.123  -3.656  -7.811  1.00  0.00     0.000 C 
ATOM   7633  C31 POP    90     -21.425  -3.254  -6.498  1.00  0.00     0.000 C 
ATOM   7634  C31 POP    90     -22.346  -2.706  -5.386  1.00  0.00     0.000 C 
ATOM   7635  C31 POP    90     -21.579  -2.484  -4.063  1.00  0.00    -0.000 C 
ATOM   7636  C31 POP    90     -21.724  -1.071  -3.480  1.00  0.00    -0.005 C 
ATOM   7637  C31 POP    90     -22.385  -1.044  -2.100  1.00  0.00     0.005 C 
ATOM   7638  HO2 POP    90     -22.495  -5.296 -21.013  1.00  0.00     0.210 HD
ATOM   7639  HO3 POP    90     -23.169  -4.115 -23.205  1.00  0.00     0.210 HD
ATOM   7640  HO4 POP    90     -22.463  -5.702 -26.392  1.00  0.00     0.210 HD
ATOM   7641  HO5 POP    90     -21.481  -7.968 -25.557  1.00  0.00     0.210 HD
ATOM   7642  HO6 POP    90     -19.212  -8.914 -23.164  1.00  0.00     0.210 HD
ATOM   7643  N   YOP    91     -11.815 -19.523 -16.805  1.00  0.00    -0.077 N 
ATOM   7644  P   YOP    91     -11.773 -17.615 -19.771  1.00  0.00     0.408 P 
ATOM   7645  C1  YOP    91     -13.486 -15.696 -19.204  1.00  0.00     0.216 C 
ATOM   7646  C2  YOP    91     -13.848 -15.219 -17.772  1.00  0.00     0.180 C 
ATOM   7647  C3  YOP    91     -14.965 -16.103 -17.165  1.00  0.00     0.213 C 
ATOM   7648  C11 YOP    91     -12.982 -19.887 -19.004  1.00  0.00     0.208 C 
ATOM   7649  O11 YOP    91     -13.143 -17.085 -19.192  1.00  0.00    -0.287 OA
ATOM   7650  C12 YOP    91     -12.501 -20.537 -17.689  1.00  0.00     0.256 C 
ATOM   7651  O12 YOP    91     -11.938 -19.178 -19.662  1.00  0.00    -0.288 OA
ATOM   7652  O13 YOP    91     -11.663 -17.210 -21.181  1.00  0.00    -0.624 OA
ATOM   7653  O14 YOP    91     -10.697 -17.255 -18.832  1.00  0.00    -0.624 OA
ATOM   7654  C21 YOP    91     -11.863 -14.359 -16.979  1.00  0.00     0.259 C 
ATOM   7655  O21 YOP    91     -12.703 -15.353 -16.937  1.00  0.00    -0.312 OA
ATOM   7656  C22 YOP    91     -10.651 -14.721 -16.132  1.00  0.00     0.111 C 
ATOM   7657  O22 YOP    91     -11.999 -13.311 -17.588  1.00  0.00    -0.265 OA
ATOM   7658  C23 YOP    91     -10.720 -16.066 -15.360  1.00  0.00     0.010 C 
ATOM   7659  C24 YOP    91     -11.751 -15.943 -14.230  1.00  0.00     0.000 C 
ATOM   7660  C25 YOP    91     -11.542 -16.788 -12.957  1.00  0.00     0.000 C 
ATOM   7661  C26 YOP    91     -11.991 -18.246 -13.087  1.00  0.00     0.000 C 
ATOM   7662  C27 YOP    91     -12.373 -18.971 -11.781  1.00  0.00     0.004 C 
ATOM   7663  C28 YOP    91     -11.190 -19.755 -11.185  1.00  0.00     0.027 C 
ATOM   7664  C29 YOP    91     -10.093 -18.868 -10.646  1.00  0.00    -0.031 C 
ATOM   7665  C31 YOP    91     -15.960 -15.026 -15.380  1.00  0.00     0.258 C 
ATOM   7666  O31 YOP    91     -15.060 -15.940 -15.724  1.00  0.00    -0.319 OA
ATOM   7667  C32 YOP    91     -16.026 -14.851 -13.861  1.00  0.00     0.111 C 
ATOM   7668  O32 YOP    91     -16.702 -14.469 -16.164  1.00  0.00    -0.265 OA
ATOM   7669  C33 YOP    91     -15.045 -13.863 -13.289  1.00  0.00     0.010 C 
ATOM   7670  C34 YOP    91     -15.173 -13.680 -11.775  1.00  0.00     0.000 C 
ATOM   7671  C35 YOP    91     -14.418 -14.838 -11.175  1.00  0.00     0.000 C 
ATOM   7672  C36 YOP    91     -14.696 -16.051 -10.265  1.00  0.00     0.004 C 
ATOM   7673  C37 YOP    91     -14.088 -16.495  -8.869  1.00  0.00     0.027 C 
ATOM   7674  C38 YOP    91     -14.541 -17.961  -8.323  1.00  0.00    -0.027 C 
ATOM   7675  C39 YOP    91     -15.987 -18.206  -8.555  1.00  0.00    -0.008 C 
ATOM   7676  C21 YOP    91      -9.593 -18.907  -9.398  1.00  0.00    -0.031 C 
ATOM   7677  C21 YOP    91     -10.053 -19.859  -8.325  1.00  0.00     0.027 C 
ATOM   7678  C21 YOP    91     -11.340 -19.413  -7.606  1.00  0.00     0.004 C 
ATOM   7679  C21 YOP    91     -11.134 -18.158  -6.738  1.00  0.00     0.000 C 
ATOM   7680  C21 YOP    91     -12.320 -17.831  -5.827  1.00  0.00     0.000 C 
ATOM   7681  C21 YOP    91     -12.122 -16.625  -4.908  1.00  0.00     0.000 C 
ATOM   7682  C21 YOP    91     -10.918 -16.690  -3.972  1.00  0.00    -0.000 C 
ATOM   7683  C21 YOP    91     -11.011 -17.847  -2.964  1.00  0.00    -0.005 C 
ATOM   7684  C21 YOP    91      -9.793 -17.920  -2.065  1.00  0.00     0.005 C 
ATOM   7685  C31 YOP    91     -17.227 -18.668  -7.799  1.00  0.00    -0.027 C 
ATOM   7686  C31 YOP    91     -16.932 -19.420  -6.444  1.00  0.00     0.027 C 
ATOM   7687  C31 YOP    91     -17.607 -18.554  -5.246  1.00  0.00     0.004 C 
ATOM   7688  C31 YOP    91     -18.974 -17.706  -4.991  1.00  0.00     0.000 C 
ATOM   7689  C31 YOP    91     -19.102 -17.075  -3.531  1.00  0.00    -0.000 C 
ATOM   7690  C31 YOP    91     -19.144 -15.504  -3.373  1.00  0.00    -0.005 C 
ATOM   7691  C31 YOP    91     -18.844 -14.904  -2.027  1.00  0.00     0.005 C 
ATOM   7692  HN1 YOP    91     -11.244 -18.911 -17.441  1.00  0.00     0.274 HD
ATOM   7693  HN2 YOP    91     -12.520 -18.921 -16.335  1.00  0.00     0.274 HD
ATOM   7694  HN3 YOP    91     -11.200 -19.968 -16.096  1.00  0.00     0.274 HD
ATOM   7695  H8X YOP    91     -14.427 -18.378  -9.495  1.00  0.00     0.000 HD
ATOM   7696  P   YOP    92       5.205 -22.727 -19.297  1.00  0.00     0.406 P 
ATOM   7697  C1  YOP    92       3.435 -23.003 -17.420  1.00  0.00     0.216 C 
ATOM   7698  C2  YOP    92       3.976 -23.978 -16.331  1.00  0.00     0.180 C 
ATOM   7699  C3  YOP    92       3.674 -25.460 -16.682  1.00  0.00     0.213 C 
ATOM   7700  O11 YOP    92       3.865 -23.363 -18.733  1.00  0.00    -0.287 OA
ATOM   7701  O12 YOP    92       5.260 -23.477 -20.686  1.00  0.00    -0.300 OA
ATOM   7702  O13 YOP    92       6.410 -23.168 -18.567  1.00  0.00    -0.624 OA
ATOM   7703  O14 YOP    92       5.019 -21.285 -19.588  1.00  0.00    -0.624 OA
ATOM   7704  C21 YOP    92       5.778 -22.791 -15.463  1.00  0.00     0.259 C 
ATOM   7705  O21 YOP    92       5.386 -23.855 -16.109  1.00  0.00    -0.312 OA
ATOM   7706  C22 YOP    92       7.307 -22.775 -15.410  1.00  0.00     0.111 C 
ATOM   7707  O22 YOP    92       5.054 -21.984 -14.896  1.00  0.00    -0.265 OA
ATOM   7708  C23 YOP    92       7.760 -22.129 -14.089  1.00  0.00     0.010 C 
ATOM   7709  C24 YOP    92       9.263 -22.244 -13.817  1.00  0.00     0.000 C 
ATOM   7710  C25 YOP    92       9.767 -21.311 -12.699  1.00  0.00     0.000 C 
ATOM   7711  C26 YOP    92       9.510 -21.686 -11.231  1.00  0.00     0.000 C 
ATOM   7712  C27 YOP    92       8.034 -21.796 -10.840  1.00  0.00     0.004 C 
ATOM   7713  C28 YOP    92       7.774 -21.637  -9.327  1.00  0.00     0.027 C 
ATOM   7714  C29 YOP    92       8.503 -22.716  -8.566  1.00  0.00    -0.031 C 
ATOM   7715  C31 YOP    92       5.162 -26.973 -15.642  1.00  0.00     0.258 C 
ATOM   7716  O31 YOP    92       4.015 -26.319 -15.574  1.00  0.00    -0.319 OA
ATOM   7717  C32 YOP    92       5.437 -27.677 -14.296  1.00  0.00     0.111 C 
ATOM   7718  O32 YOP    92       5.901 -27.005 -16.609  1.00  0.00    -0.265 OA
ATOM   7719  C33 YOP    92       4.701 -27.110 -13.065  1.00  0.00     0.010 C 
ATOM   7720  C34 YOP    92       5.432 -25.869 -12.526  1.00  0.00     0.000 C 
ATOM   7721  C35 YOP    92       4.515 -24.878 -11.793  1.00  0.00     0.000 C 
ATOM   7722  C36 YOP    92       4.576 -24.873 -10.254  1.00  0.00     0.000 C 
ATOM   7723  C37 YOP    92       3.600 -25.883  -9.617  1.00  0.00     0.004 C 
ATOM   7724  C38 YOP    92       3.779 -26.065  -8.095  1.00  0.00     0.027 C 
ATOM   7725  C39 YOP    92       5.180 -26.511  -7.762  1.00  0.00    -0.031 C 
ATOM   7726  C21 YOP    92       9.051 -22.661  -7.335  1.00  0.00    -0.031 C 
ATOM   7727  C21 YOP    92       9.065 -21.475  -6.392  1.00  0.00     0.027 C 
ATOM   7728  C21 YOP    92       8.416 -21.787  -5.013  1.00  0.00     0.004 C 
ATOM   7729  C21 YOP    92       8.404 -20.583  -4.036  1.00  0.00     0.000 C 
ATOM   7730  C21 YOP    92       7.842 -20.874  -2.612  1.00  0.00     0.000 C 
ATOM   7731  C21 YOP    92       7.602 -19.649  -1.677  1.00  0.00     0.000 C 
ATOM   7732  C21 YOP    92       7.599 -19.957  -0.149  1.00  0.00    -0.000 C 
ATOM   7733  C21 YOP    92       6.234 -20.238   0.522  1.00  0.00    -0.005 C 
ATOM   7734  C21 YOP    92       5.662 -21.648   0.332  1.00  0.00     0.005 C 
ATOM   7735  C31 YOP    92       6.037 -25.894  -6.929  1.00  0.00    -0.031 C 
ATOM   7736  C31 YOP    92       5.742 -24.625  -6.166  1.00  0.00     0.027 C 
ATOM   7737  C31 YOP    92       4.935 -24.872  -4.867  1.00  0.00     0.004 C 
ATOM   7738  C31 YOP    92       4.731 -23.564  -4.087  1.00  0.00     0.000 C 
ATOM   7739  C31 YOP    92       4.281 -23.680  -2.612  1.00  0.00    -0.000 C 
ATOM   7740  C31 YOP    92       3.024 -24.526  -2.351  1.00  0.00    -0.005 C 
ATOM   7741  C31 YOP    92       2.642 -24.602  -0.865  1.00  0.00     0.005 C 
ATOM   7742  H12 YOP    92       6.179 -23.605 -20.941  1.00  0.00     0.223 HD
ATOM   7743  N   POP    93      22.017 -13.537 -20.334  1.00  0.00    -0.077 N 
ATOM   7744  P   POP    93      19.936 -10.747 -18.359  1.00  0.00     0.408 P 
ATOM   7745  C1  POP    93      20.566  -8.542 -17.088  1.00  0.00     0.216 C 
ATOM   7746  C2  POP    93      21.125  -8.391 -15.654  1.00  0.00     0.180 C 
ATOM   7747  C3  POP    93      20.760  -6.991 -15.110  1.00  0.00     0.213 C 
ATOM   7748  C11 POP    93      21.807 -11.041 -20.170  1.00  0.00     0.208 C 
ATOM   7749  O11 POP    93      20.996  -9.733 -17.765  1.00  0.00    -0.287 OA
ATOM   7750  C12 POP    93      22.550 -12.299 -19.668  1.00  0.00     0.256 C 
ATOM   7751  O12 POP    93      20.429 -11.021 -19.832  1.00  0.00    -0.288 OA
ATOM   7752  O13 POP    93      20.100 -12.032 -17.662  1.00  0.00    -0.624 OA
ATOM   7753  O14 POP    93      18.599 -10.132 -18.396  1.00  0.00    -0.624 OA
ATOM   7754  C21 POP    93      21.026 -10.549 -14.815  1.00  0.00     0.259 C 
ATOM   7755  O21 POP    93      20.494  -9.351 -14.817  1.00  0.00    -0.312 OA
ATOM   7756  C22 POP    93      20.030 -11.435 -14.090  1.00  0.00     0.111 C 
ATOM   7757  O22 POP    93      22.144 -10.859 -15.189  1.00  0.00    -0.265 OA
ATOM   7758  C23 POP    93      19.768 -10.897 -12.673  1.00  0.00     0.010 C 
ATOM   7759  C24 POP    93      21.016 -10.462 -11.902  1.00  0.00     0.000 C 
ATOM   7760  C25 POP    93      20.719 -10.451 -10.411  1.00  0.00     0.000 C 
ATOM   7761  C26 POP    93      21.984 -10.265  -9.580  1.00  0.00     0.000 C 
ATOM   7762  C27 POP    93      21.730 -10.403  -8.076  1.00  0.00     0.004 C 
ATOM   7763  C28 POP    93      21.194  -9.116  -7.415  1.00  0.00     0.027 C 
ATOM   7764  C29 POP    93      19.702  -8.858  -7.532  1.00  0.00    -0.031 C 
ATOM   7765  C31 POP    93      22.393  -6.529 -13.539  1.00  0.00     0.258 C 
ATOM   7766  O31 POP    93      21.123  -6.850 -13.720  1.00  0.00    -0.319 OA
ATOM   7767  C32 POP    93      22.708  -6.552 -12.040  1.00  0.00     0.111 C 
ATOM   7768  O32 POP    93      23.179  -6.218 -14.418  1.00  0.00    -0.265 OA
ATOM   7769  C33 POP    93      21.863  -5.502 -11.283  1.00  0.00     0.010 C 
ATOM   7770  C34 POP    93      21.899  -5.585  -9.760  1.00  0.00     0.000 C 
ATOM   7771  C35 POP    93      21.182  -4.392  -9.219  1.00  0.00     0.000 C 
ATOM   7772  C36 POP    93      21.606  -4.168  -7.798  1.00  0.00     0.000 C 
ATOM   7773  C37 POP    93      20.950  -5.034  -6.658  1.00  0.00     0.000 C 
ATOM   7774  C38 POP    93      21.701  -4.948  -5.256  1.00  0.00     0.000 C 
ATOM   7775  C39 POP    93      20.934  -5.553  -4.063  1.00  0.00     0.000 C 
ATOM   7776  C21 POP    93      18.755  -9.029  -6.579  1.00  0.00    -0.031 C 
ATOM   7777  C21 POP    93      18.950  -9.525  -5.163  1.00  0.00     0.027 C 
ATOM   7778  C21 POP    93      17.817  -9.188  -4.153  1.00  0.00     0.004 C 
ATOM   7779  C21 POP    93      17.665  -7.707  -3.743  1.00  0.00     0.000 C 
ATOM   7780  C21 POP    93      16.503  -7.491  -2.756  1.00  0.00     0.000 C 
ATOM   7781  C21 POP    93      16.580  -6.106  -2.087  1.00  0.00     0.000 C 
ATOM   7782  C21 POP    93      15.291  -5.627  -1.387  1.00  0.00    -0.000 C 
ATOM   7783  C21 POP    93      14.774  -6.509  -0.228  1.00  0.00    -0.005 C 
ATOM   7784  C21 POP    93      15.691  -6.721   0.993  1.00  0.00     0.005 C 
ATOM   7785  C31 POP    93      21.650  -5.214  -2.738  1.00  0.00     0.000 C 
ATOM   7786  C31 POP    93      20.916  -5.599  -1.457  1.00  0.00     0.000 C 
ATOM   7787  C31 POP    93      21.077  -7.088  -1.224  1.00  0.00     0.000 C 
ATOM   7788  C31 POP    93      20.262  -7.520  -0.034  1.00  0.00     0.000 C 
ATOM   7789  C31 POP    93      20.659  -8.917   0.439  1.00  0.00    -0.000 C 
ATOM   7790  C31 POP    93      20.736  -8.881   1.925  1.00  0.00    -0.005 C 
ATOM   7791  C31 POP    93      19.417  -8.760   2.354  1.00  0.00     0.005 C 
ATOM   7792  HN1 POP    93      22.297 -14.367 -19.785  1.00  0.00     0.274 HD
ATOM   7793  HN2 POP    93      20.981 -13.443 -20.346  1.00  0.00     0.274 HD
ATOM   7794  HN3 POP    93      22.416 -13.619 -21.293  1.00  0.00     0.274 HD
ATOM   7795  C1  ERG    94      22.901   0.237 -15.717  1.00  0.00     0.017 C 
ATOM   7796  C2  ERG    94      23.064  -0.200 -17.179  1.00  0.00     0.033 C 
ATOM   7797  C3  ERG    94      24.124  -1.295 -17.352  1.00  0.00     0.122 C 
ATOM   7798  O3  ERG    94      24.073  -1.724 -18.703  1.00  0.00    -0.395 OA
ATOM   7799  C4  ERG    94      23.801  -2.500 -16.445  1.00  0.00     0.066 C 
ATOM   7800  C5  ERG    94      23.729  -2.024 -15.008  1.00  0.00    -0.069 A 
ATOM   7801  C6  ERG    94      24.591  -2.430 -14.046  1.00  0.00     0.004 A 
ATOM   7802  C7  ERG    94      24.648  -1.898 -12.802  1.00  0.00     0.004 A 
ATOM   7803  C8  ERG    94      23.847  -0.888 -12.397  1.00  0.00    -0.070 A 
ATOM   7804  C9  ERG    94      22.740  -0.316 -13.283  1.00  0.00     0.027 A 
ATOM   7805  C10 ERG    94      22.659  -0.931 -14.723  1.00  0.00    -0.013 A 
ATOM   7806  C11 ERG    94      21.388  -0.209 -12.509  1.00  0.00     0.011 C 
ATOM   7807  C12 ERG    94      21.494   0.505 -11.142  1.00  0.00     0.011 C 
ATOM   7808  C13 ERG    94      22.676  -0.010 -10.310  1.00  0.00    -0.032 C 
ATOM   7809  C14 ERG    94      23.954  -0.083 -11.128  1.00  0.00     0.023 C 
ATOM   7810  C15 ERG    94      25.109  -0.264 -10.103  1.00  0.00     0.010 C 
ATOM   7811  C16 ERG    94      24.607   0.489  -8.854  1.00  0.00     0.007 C 
ATOM   7812  C17 ERG    94      23.138   0.890  -9.169  1.00  0.00     0.002 C 
ATOM   7813  C18 ERG    94      22.357  -1.388  -9.789  1.00  0.00     0.016 C 
ATOM   7814  C19 ERG    94      21.272  -1.612 -14.951  1.00  0.00     0.021 C 
ATOM   7815  C20 ERG    94      22.211   1.084  -7.975  1.00  0.00     0.008 C 
ATOM   7816  C21 ERG    94      22.536   2.495  -7.444  1.00  0.00     0.014 C 
ATOM   7817  C22 ERG    94      22.239   0.176  -6.775  1.00  0.00    -0.026 C 
ATOM   7818  C23 ERG    94      21.112  -0.378  -6.330  1.00  0.00    -0.026 C 
ATOM   7819  C24 ERG    94      21.028  -1.283  -5.145  1.00  0.00     0.007 C 
ATOM   7820  C25 ERG    94      20.060  -1.064  -4.060  1.00  0.00    -0.015 C 
ATOM   7821  C26 ERG    94      20.035  -2.231  -3.038  1.00  0.00     0.010 C 
ATOM   7822  C27 ERG    94      20.516   0.201  -3.380  1.00  0.00     0.010 C 
ATOM   7823  C28 ERG    94      20.380  -2.445  -5.756  1.00  0.00     0.014 C 
ATOM   7824  H3' ERG    94      23.325  -2.330 -18.695  1.00  0.00     0.210 HD
ATOM   7825  N   PYP    95      23.524  10.993 -22.899  1.00  0.00    -0.077 N 
ATOM   7826  P   PYP    95      23.981   7.179 -20.930  1.00  0.00     0.408 P 
ATOM   7827  C1  PYP    95      23.024   6.239 -18.699  1.00  0.00     0.216 C 
ATOM   7828  C2  PYP    95      23.261   6.970 -17.339  1.00  0.00     0.180 C 
ATOM   7829  C3  PYP    95      23.724   5.965 -16.223  1.00  0.00     0.213 C 
ATOM   7830  C11 PYP    95      22.288   9.088 -21.734  1.00  0.00     0.208 C 
ATOM   7831  O11 PYP    95      22.870   7.147 -19.805  1.00  0.00    -0.287 OA
ATOM   7832  C12 PYP    95      22.229  10.192 -22.812  1.00  0.00     0.256 C 
ATOM   7833  O12 PYP    95      23.548   8.438 -21.814  1.00  0.00    -0.288 OA
ATOM   7834  O13 PYP    95      25.294   7.451 -20.323  1.00  0.00    -0.624 OA
ATOM   7835  O14 PYP    95      23.808   5.956 -21.743  1.00  0.00    -0.624 OA
ATOM   7836  C21 PYP    95      24.353   8.895 -16.600  1.00  0.00     0.259 C 
ATOM   7837  O21 PYP    95      24.276   7.968 -17.515  1.00  0.00    -0.312 OA
ATOM   7838  C22 PYP    95      25.818   9.297 -16.419  1.00  0.00     0.111 C 
ATOM   7839  O22 PYP    95      23.449   9.283 -15.877  1.00  0.00    -0.265 OA
ATOM   7840  C23 PYP    95      26.092   9.443 -14.899  1.00  0.00     0.010 C 
ATOM   7841  C24 PYP    95      25.912  10.864 -14.364  1.00  0.00     0.000 C 
ATOM   7842  C25 PYP    95      25.645  10.957 -12.842  1.00  0.00     0.000 C 
ATOM   7843  C26 PYP    95      26.736  10.423 -11.875  1.00  0.00     0.000 C 
ATOM   7844  C27 PYP    95      26.391  10.733 -10.403  1.00  0.00     0.004 C 
ATOM   7845  C28 PYP    95      27.277  10.043  -9.357  1.00  0.00     0.027 C 
ATOM   7846  C29 PYP    95      27.275   8.543  -9.397  1.00  0.00    -0.031 C 
ATOM   7847  C31 PYP    95      22.573   6.742 -14.339  1.00  0.00     0.258 C 
ATOM   7848  O31 PYP    95      23.761   6.515 -14.882  1.00  0.00    -0.319 OA
ATOM   7849  C32 PYP    95      22.762   7.359 -12.951  1.00  0.00     0.111 C 
ATOM   7850  O32 PYP    95      21.499   6.461 -14.841  1.00  0.00    -0.265 OA
ATOM   7851  C33 PYP    95      21.405   7.564 -12.241  1.00  0.00     0.010 C 
ATOM   7852  C34 PYP    95      21.400   8.610 -11.130  1.00  0.00     0.000 C 
ATOM   7853  C35 PYP    95      22.489   8.372 -10.081  1.00  0.00     0.000 C 
ATOM   7854  C36 PYP    95      22.163   9.082  -8.771  1.00  0.00     0.000 C 
ATOM   7855  C37 PYP    95      22.003  10.574  -8.937  1.00  0.00     0.000 C 
ATOM   7856  C38 PYP    95      22.183  11.370  -7.628  1.00  0.00     0.000 C 
ATOM   7857  C39 PYP    95      21.071  10.988  -6.619  1.00  0.00     0.000 C 
ATOM   7858  C21 PYP    95      27.659   7.796  -8.352  1.00  0.00    -0.031 C 
ATOM   7859  C21 PYP    95      28.132   8.339  -7.032  1.00  0.00     0.027 C 
ATOM   7860  C21 PYP    95      27.463   7.615  -5.844  1.00  0.00     0.004 C 
ATOM   7861  C21 PYP    95      26.003   8.010  -5.530  1.00  0.00     0.000 C 
ATOM   7862  C21 PYP    95      25.313   7.030  -4.556  1.00  0.00    -0.000 C 
ATOM   7863  C21 PYP    95      25.757   7.277  -3.105  1.00  0.00    -0.005 C 
ATOM   7864  C21 PYP    95      25.093   6.357  -2.078  1.00  0.00     0.005 C 
ATOM   7865  C31 PYP    95      21.075  11.684  -5.266  1.00  0.00     0.000 C 
ATOM   7866  C31 PYP    95      22.351  11.350  -4.503  1.00  0.00     0.000 C 
ATOM   7867  C31 PYP    95      22.551   9.853  -4.143  1.00  0.00     0.000 C 
ATOM   7868  C31 PYP    95      21.593   9.259  -3.092  1.00  0.00     0.000 C 
ATOM   7869  C31 PYP    95      21.808   9.923  -1.739  1.00  0.00    -0.000 C 
ATOM   7870  C31 PYP    95      21.046   9.336  -0.560  1.00  0.00    -0.005 C 
ATOM   7871  C31 PYP    95      21.585   8.000  -0.028  1.00  0.00     0.005 C 
ATOM   7872  HN1 PYP    95      24.282  10.332 -23.196  1.00  0.00     0.274 HD
ATOM   7873  HN2 PYP    95      23.486  11.814 -23.546  1.00  0.00     0.274 HD
ATOM   7874  HN3 PYP    95      23.831  11.328 -21.964  1.00  0.00     0.274 HD
ATOM   7875  P   YOP    96      -0.959  24.977 -19.143  1.00  0.00     0.406 P 
ATOM   7876  C1  YOP    96      -2.814  26.522 -18.104  1.00  0.00     0.216 C 
ATOM   7877  C2  YOP    96      -3.086  26.909 -16.619  1.00  0.00     0.180 C 
ATOM   7878  C3  YOP    96      -4.058  25.916 -15.922  1.00  0.00     0.213 C 
ATOM   7879  O11 YOP    96      -2.166  25.257 -18.168  1.00  0.00    -0.287 OA
ATOM   7880  O12 YOP    96      -1.603  24.478 -20.491  1.00  0.00    -0.300 OA
ATOM   7881  O13 YOP    96      -0.141  23.883 -18.597  1.00  0.00    -0.624 OA
ATOM   7882  O14 YOP    96      -0.306  26.245 -19.477  1.00  0.00    -0.624 OA
ATOM   7883  C21 YOP    96      -1.015  27.843 -16.020  1.00  0.00     0.259 C 
ATOM   7884  O21 YOP    96      -1.870  26.871 -15.853  1.00  0.00    -0.312 OA
ATOM   7885  C22 YOP    96       0.291  27.462 -15.298  1.00  0.00     0.111 C 
ATOM   7886  O22 YOP    96      -1.244  28.906 -16.568  1.00  0.00    -0.265 OA
ATOM   7887  C23 YOP    96       1.243  28.645 -14.991  1.00  0.00     0.010 C 
ATOM   7888  C24 YOP    96       2.727  28.287 -14.776  1.00  0.00     0.000 C 
ATOM   7889  C25 YOP    96       2.985  27.067 -13.884  1.00  0.00     0.000 C 
ATOM   7890  C26 YOP    96       2.349  27.190 -12.491  1.00  0.00     0.000 C 
ATOM   7891  C27 YOP    96       2.475  25.933 -11.625  1.00  0.00     0.004 C 
ATOM   7892  C28 YOP    96       1.633  26.037 -10.337  1.00  0.00     0.027 C 
ATOM   7893  C29 YOP    96       1.919  24.875  -9.426  1.00  0.00    -0.031 C 
ATOM   7894  C31 YOP    96      -5.049  26.818 -13.966  1.00  0.00     0.258 C 
ATOM   7895  O31 YOP    96      -4.074  26.113 -14.502  1.00  0.00    -0.319 OA
ATOM   7896  C32 YOP    96      -4.736  27.025 -12.483  1.00  0.00     0.111 C 
ATOM   7897  O32 YOP    96      -6.024  27.262 -14.545  1.00  0.00    -0.265 OA
ATOM   7898  C33 YOP    96      -3.238  26.857 -12.171  1.00  0.00     0.010 C 
ATOM   7899  C34 YOP    96      -2.874  27.348 -10.777  1.00  0.00     0.000 C 
ATOM   7900  C35 YOP    96      -3.212  28.762 -10.298  1.00  0.00     0.000 C 
ATOM   7901  C36 YOP    96      -2.105  29.023  -9.289  1.00  0.00     0.000 C 
ATOM   7902  C37 YOP    96      -1.951  30.433  -8.971  1.00  0.00     0.004 C 
ATOM   7903  C38 YOP    96      -0.964  30.924  -8.041  1.00  0.00     0.027 C 
ATOM   7904  C39 YOP    96      -1.992  30.633  -7.106  1.00  0.00    -0.031 C 
ATOM   7905  C21 YOP    96       1.014  24.248  -8.660  1.00  0.00    -0.031 C 
ATOM   7906  C21 YOP    96      -0.441  24.616  -8.588  1.00  0.00     0.027 C 
ATOM   7907  C21 YOP    96      -1.201  23.891  -7.453  1.00  0.00     0.004 C 
ATOM   7908  C21 YOP    96      -2.647  24.416  -7.297  1.00  0.00     0.000 C 
ATOM   7909  C21 YOP    96      -3.238  24.201  -5.895  1.00  0.00     0.000 C 
ATOM   7910  C21 YOP    96      -4.484  25.070  -5.629  1.00  0.00     0.000 C 
ATOM   7911  C21 YOP    96      -5.001  25.058  -4.180  1.00  0.00    -0.000 C 
ATOM   7912  C21 YOP    96      -5.191  23.647  -3.612  1.00  0.00    -0.005 C 
ATOM   7913  C21 YOP    96      -4.029  23.107  -2.775  1.00  0.00     0.005 C 
ATOM   7914  C31 YOP    96      -1.534  30.158  -6.075  1.00  0.00    -0.031 C 
ATOM   7915  C31 YOP    96      -0.041  29.915  -5.720  1.00  0.00     0.027 C 
ATOM   7916  C31 YOP    96       0.618  28.666  -5.767  1.00  0.00     0.004 C 
ATOM   7917  C31 YOP    96       0.429  28.126  -4.362  1.00  0.00     0.000 C 
ATOM   7918  C31 YOP    96       0.334  26.688  -4.620  1.00  0.00    -0.000 C 
ATOM   7919  C31 YOP    96       0.716  25.886  -3.412  1.00  0.00    -0.005 C 
ATOM   7920  C31 YOP    96      -0.469  25.632  -2.485  1.00  0.00     0.005 C 
ATOM   7921  H12 YOP    96      -0.913  24.072 -21.020  1.00  0.00     0.223 HD
ATOM   7922  N   POP    97      20.568  15.917 -20.862  1.00  0.00    -0.077 N 
ATOM   7923  P   POP    97      19.219  18.549 -18.423  1.00  0.00     0.408 P 
ATOM   7924  C1  POP    97      17.724  17.313 -16.655  1.00  0.00     0.216 C 
ATOM   7925  C2  POP    97      17.264  18.275 -15.525  1.00  0.00     0.180 C 
ATOM   7926  C3  POP    97      16.025  17.689 -14.766  1.00  0.00     0.213 C 
ATOM   7927  C11 POP    97      18.642  16.146 -19.489  1.00  0.00     0.208 C 
ATOM   7928  O11 POP    97      19.032  17.613 -17.166  1.00  0.00    -0.287 OA
ATOM   7929  C12 POP    97      20.018  15.473 -19.554  1.00  0.00     0.256 C 
ATOM   7930  O12 POP    97      18.679  17.574 -19.552  1.00  0.00    -0.288 OA
ATOM   7931  O13 POP    97      18.336  19.723 -18.348  1.00  0.00    -0.624 OA
ATOM   7932  O14 POP    97      20.648  18.735 -18.750  1.00  0.00    -0.624 OA
ATOM   7933  C21 POP    97      18.179  19.346 -13.664  1.00  0.00     0.259 C 
ATOM   7934  O21 POP    97      18.378  18.490 -14.637  1.00  0.00    -0.312 OA
ATOM   7935  C22 POP    97      19.229  19.131 -12.576  1.00  0.00     0.111 C 
ATOM   7936  O22 POP    97      17.254  20.134 -13.579  1.00  0.00    -0.265 OA
ATOM   7937  C23 POP    97      18.840  17.916 -11.701  1.00  0.00     0.010 C 
ATOM   7938  C24 POP    97      19.312  16.580 -12.279  1.00  0.00     0.000 C 
ATOM   7939  C25 POP    97      20.842  16.552 -12.393  1.00  0.00     0.000 C 
ATOM   7940  C26 POP    97      21.392  15.184 -12.780  1.00  0.00     0.000 C 
ATOM   7941  C27 POP    97      21.038  14.057 -11.826  1.00  0.00     0.004 C 
ATOM   7942  C28 POP    97      21.307  14.465 -10.378  1.00  0.00     0.027 C 
ATOM   7943  C29 POP    97      20.848  13.336  -9.600  1.00  0.00    -0.031 C 
ATOM   7944  C31 POP    97      15.431  16.075 -13.216  1.00  0.00     0.258 C 
ATOM   7945  O31 POP    97      16.380  16.471 -14.062  1.00  0.00    -0.319 OA
ATOM   7946  C32 POP    97      15.813  14.747 -12.549  1.00  0.00     0.111 C 
ATOM   7947  O32 POP    97      14.384  16.665 -13.024  1.00  0.00    -0.265 OA
ATOM   7948  C33 POP    97      15.208  14.635 -11.127  1.00  0.00     0.010 C 
ATOM   7949  C34 POP    97      15.697  15.741 -10.175  1.00  0.00     0.000 C 
ATOM   7950  C35 POP    97      14.900  15.849  -8.868  1.00  0.00     0.000 C 
ATOM   7951  C36 POP    97      14.936  14.638  -7.936  1.00  0.00     0.000 C 
ATOM   7952  C37 POP    97      14.028  14.888  -6.726  1.00  0.00     0.000 C 
ATOM   7953  C38 POP    97      14.640  15.895  -5.727  1.00  0.00     0.000 C 
ATOM   7954  C39 POP    97      13.917  15.980  -4.376  1.00  0.00     0.000 C 
ATOM   7955  C21 POP    97      19.903  13.258  -8.673  1.00  0.00    -0.031 C 
ATOM   7956  C21 POP    97      19.022  14.293  -8.147  1.00  0.00     0.027 C 
ATOM   7957  C21 POP    97      19.719  15.320  -7.274  1.00  0.00     0.004 C 
ATOM   7958  C21 POP    97      18.682  16.396  -7.002  1.00  0.00     0.000 C 
ATOM   7959  C21 POP    97      19.356  17.641  -6.447  1.00  0.00     0.000 C 
ATOM   7960  C21 POP    97      18.508  18.513  -5.510  1.00  0.00     0.000 C 
ATOM   7961  C21 POP    97      18.056  17.826  -4.204  1.00  0.00    -0.000 C 
ATOM   7962  C21 POP    97      19.192  17.190  -3.383  1.00  0.00    -0.005 C 
ATOM   7963  C21 POP    97      18.704  16.288  -2.254  1.00  0.00     0.005 C 
ATOM   7964  C31 POP    97      14.341  14.905  -3.388  1.00  0.00     0.000 C 
ATOM   7965  C31 POP    97      13.519  14.997  -2.075  1.00  0.00     0.000 C 
ATOM   7966  C31 POP    97      13.454  13.729  -1.203  1.00  0.00     0.000 C 
ATOM   7967  C31 POP    97      14.706  13.505  -0.234  1.00  0.00     0.000 C 
ATOM   7968  C31 POP    97      15.075  12.056   0.411  1.00  0.00    -0.000 C 
ATOM   7969  C31 POP    97      14.085  11.388   1.202  1.00  0.00    -0.005 C 
ATOM   7970  C31 POP    97      14.565  10.072   1.832  1.00  0.00     0.005 C 
ATOM   7971  HN1 POP    97      21.574  15.709 -20.974  1.00  0.00     0.274 HD
ATOM   7972  HN2 POP    97      20.004  15.426 -21.576  1.00  0.00     0.274 HD
ATOM   7973  HN3 POP    97      20.359  16.944 -20.901  1.00  0.00     0.274 HD
ATOM   7974  C1  ERG    98     -13.631  25.372 -16.079  1.00  0.00     0.017 C 
ATOM   7975  C2  ERG    98     -13.853  24.647 -17.416  1.00  0.00     0.033 C 
ATOM   7976  C3  ERG    98     -13.202  23.258 -17.399  1.00  0.00     0.122 C 
ATOM   7977  O3  ERG    98     -13.547  22.598 -18.596  1.00  0.00    -0.395 OA
ATOM   7978  C4  ERG    98     -13.702  22.425 -16.206  1.00  0.00     0.066 C 
ATOM   7979  C5  ERG    98     -13.409  23.171 -14.927  1.00  0.00    -0.069 A 
ATOM   7980  C6  ERG    98     -12.556  22.722 -13.984  1.00  0.00     0.004 A 
ATOM   7981  C7  ERG    98     -12.179  23.422 -12.889  1.00  0.00     0.004 A 
ATOM   7982  C8  ERG    98     -12.624  24.665 -12.613  1.00  0.00    -0.070 A 
ATOM   7983  C9  ERG    98     -13.618  25.347 -13.533  1.00  0.00     0.027 A 
ATOM   7984  C10 ERG    98     -14.059  24.555 -14.819  1.00  0.00    -0.013 A 
ATOM   7985  C11 ERG    98     -14.736  25.927 -12.643  1.00  0.00     0.011 C 
ATOM   7986  C12 ERG    98     -14.243  26.921 -11.573  1.00  0.00     0.011 C 
ATOM   7987  C13 ERG    98     -13.291  26.195 -10.611  1.00  0.00    -0.032 C 
ATOM   7988  C14 ERG    98     -12.195  25.587 -11.490  1.00  0.00     0.023 C 
ATOM   7989  C15 ERG    98     -11.093  25.144 -10.519  1.00  0.00     0.010 C 
ATOM   7990  C16 ERG    98     -11.163  26.187  -9.400  1.00  0.00     0.007 C 
ATOM   7991  C17 ERG    98     -12.435  27.046  -9.640  1.00  0.00     0.002 C 
ATOM   7992  C18 ERG    98     -14.012  25.069  -9.826  1.00  0.00     0.016 C 
ATOM   7993  C19 ERG    98     -15.589  24.315 -14.806  1.00  0.00     0.021 C 
ATOM   7994  C20 ERG    98     -13.027  27.526  -8.307  1.00  0.00     0.008 C 
ATOM   7995  C21 ERG    98     -14.192  28.464  -8.639  1.00  0.00     0.014 C 
ATOM   7996  C22 ERG    98     -12.009  28.256  -7.428  1.00  0.00    -0.026 C 
ATOM   7997  C23 ERG    98     -11.530  27.774  -6.268  1.00  0.00    -0.026 C 
ATOM   7998  C24 ERG    98     -10.514  28.475  -5.393  1.00  0.00     0.007 C 
ATOM   7999  C25 ERG    98     -10.942  28.589  -3.932  1.00  0.00    -0.015 C 
ATOM   8000  C26 ERG    98      -9.769  29.052  -3.065  1.00  0.00     0.010 C 
ATOM   8001  C27 ERG    98     -12.072  29.635  -3.791  1.00  0.00     0.010 C 
ATOM   8002  C28 ERG    98      -9.210  27.653  -5.586  1.00  0.00     0.014 C 
ATOM   8003  H3' ERG    98     -14.371  23.000 -18.886  1.00  0.00     0.210 HD
ATOM   8004  N   POP    99     -22.802 -18.735 -20.663  1.00  0.00    -0.077 N 
ATOM   8005  P   POP    99     -22.355 -15.633 -18.060  1.00  0.00     0.408 P 
ATOM   8006  C1  POP    99     -20.306 -15.799 -16.461  1.00  0.00     0.216 C 
ATOM   8007  C2  POP    99     -20.103 -15.908 -14.945  1.00  0.00     0.180 C 
ATOM   8008  C3  POP    99     -18.643 -15.868 -14.626  1.00  0.00     0.213 C 
ATOM   8009  C11 POP    99     -21.643 -16.484 -20.456  1.00  0.00     0.208 C 
ATOM   8010  O11 POP    99     -21.692 -15.964 -16.685  1.00  0.00    -0.287 OA
ATOM   8011  C12 POP    99     -22.881 -17.264 -20.948  1.00  0.00     0.256 C 
ATOM   8012  O12 POP    99     -21.451 -16.528 -19.039  1.00  0.00    -0.288 OA
ATOM   8013  O13 POP    99     -23.688 -16.252 -18.100  1.00  0.00    -0.624 OA
ATOM   8014  O14 POP    99     -22.190 -14.209 -18.390  1.00  0.00    -0.624 OA
ATOM   8015  C21 POP    99     -21.141 -15.141 -13.061  1.00  0.00     0.259 C 
ATOM   8016  O21 POP    99     -20.762 -14.803 -14.273  1.00  0.00    -0.312 OA
ATOM   8017  C22 POP    99     -22.090 -14.109 -12.488  1.00  0.00     0.111 C 
ATOM   8018  O22 POP    99     -20.852 -16.174 -12.489  1.00  0.00    -0.265 OA
ATOM   8019  C23 POP    99     -22.723 -14.627 -11.173  1.00  0.00     0.010 C 
ATOM   8020  C24 POP    99     -21.796 -14.539  -9.938  1.00  0.00     0.000 C 
ATOM   8021  C25 POP    99     -22.529 -14.089  -8.654  1.00  0.00     0.000 C 
ATOM   8022  C26 POP    99     -21.632 -13.936  -7.408  1.00  0.00     0.000 C 
ATOM   8023  C27 POP    99     -20.676 -12.740  -7.552  1.00  0.00     0.004 C 
ATOM   8024  C28 POP    99     -19.953 -12.322  -6.258  1.00  0.00     0.027 C 
ATOM   8025  C29 POP    99     -20.756 -11.351  -5.423  1.00  0.00    -0.031 C 
ATOM   8026  C31 POP    99     -17.673 -17.364 -13.090  1.00  0.00     0.258 C 
ATOM   8027  O31 POP    99     -18.332 -16.248 -13.290  1.00  0.00    -0.319 OA
ATOM   8028  C32 POP    99     -17.038 -17.182 -11.780  1.00  0.00     0.107 C 
ATOM   8029  O32 POP    99     -17.477 -18.280 -13.856  1.00  0.00    -0.265 OA
ATOM   8030  C33 POP    99     -18.209 -17.357 -10.839  1.00  0.00     0.046 C 
ATOM   8031  C34 POP    99     -18.232 -16.696  -9.391  1.00  0.00    -0.032 C 
ATOM   8032  C35 POP    99     -17.328 -15.522  -8.469  1.00  0.00     0.000 C 
ATOM   8033  C36 POP    99     -16.389 -15.606  -7.095  1.00  0.00     0.000 C 
ATOM   8034  C37 POP    99     -17.267 -15.724  -6.083  1.00  0.00     0.000 C 
ATOM   8035  C38 POP    99     -16.471 -16.134  -4.823  1.00  0.00     0.000 C 
ATOM   8036  C39 POP    99     -15.672 -15.384  -3.952  1.00  0.00     0.000 C 
ATOM   8037  C21 POP    99     -21.463 -11.587  -4.315  1.00  0.00    -0.031 C 
ATOM   8038  C21 POP    99     -21.584 -12.920  -3.672  1.00  0.00     0.027 C 
ATOM   8039  C21 POP    99     -21.363 -12.799  -2.156  1.00  0.00     0.004 C 
ATOM   8040  C21 POP    99     -21.568 -14.173  -1.507  1.00  0.00     0.000 C 
ATOM   8041  C21 POP    99     -20.982 -14.297  -0.070  1.00  0.00     0.000 C 
ATOM   8042  C21 POP    99     -20.899 -15.690   0.504  1.00  0.00     0.000 C 
ATOM   8043  C21 POP    99     -22.205 -16.116   1.022  1.00  0.00    -0.000 C 
ATOM   8044  C21 POP    99     -21.873 -17.211   2.021  1.00  0.00    -0.005 C 
ATOM   8045  C21 POP    99     -20.687 -17.313   3.194  1.00  0.00     0.005 C 
ATOM   8046  C31 POP    99     -16.131 -13.994  -4.118  1.00  0.00     0.000 C 
ATOM   8047  C31 POP    99     -15.871 -13.334  -2.833  1.00  0.00     0.000 C 
ATOM   8048  C31 POP    99     -16.709 -12.105  -2.605  1.00  0.00     0.000 C 
ATOM   8049  C31 POP    99     -16.060 -11.180  -1.605  1.00  0.00     0.000 C 
ATOM   8050  C31 POP    99     -16.025 -11.675  -0.160  1.00  0.00    -0.000 C 
ATOM   8051  C31 POP    99     -17.210 -12.454   0.451  1.00  0.00    -0.005 C 
ATOM   8052  C31 POP    99     -18.289 -11.487   0.891  1.00  0.00     0.005 C 
ATOM   8053  HN1 POP    99     -22.865 -18.835 -19.626  1.00  0.00     0.274 HD
ATOM   8054  HN2 POP    99     -23.599 -19.191 -21.143  1.00  0.00     0.274 HD
ATOM   8055  HN3 POP    99     -21.917 -19.126 -21.043  1.00  0.00     0.274 HD
ATOM   8056  N   POP   100      -6.019 -26.432 -19.611  1.00  0.00    -0.063 N 
ATOM   8057  P   POP   100      -3.655 -28.433 -16.958  1.00  0.00     0.408 P 
ATOM   8058  C1  POP   100      -5.543 -28.210 -15.140  1.00  0.00     0.216 C 
ATOM   8059  C2  POP   100      -6.779 -27.470 -15.743  1.00  0.00     0.180 C 
ATOM   8060  C3  POP   100      -7.962 -27.591 -14.736  1.00  0.00     0.213 C 
ATOM   8061  C11 POP   100      -4.445 -28.279 -19.420  1.00  0.00     0.225 C 
ATOM   8062  O11 POP   100      -4.305 -27.779 -15.696  1.00  0.00    -0.287 OA
ATOM   8063  C12 POP   100      -4.621 -26.837 -19.918  1.00  0.00     0.307 C 
ATOM   8064  O12 POP   100      -4.832 -28.312 -18.035  1.00  0.00    -0.287 OA
ATOM   8065  C13 POP   100      -4.194 -26.665 -21.383  1.00  0.00     0.206 C 
ATOM   8066  O13 POP   100      -2.520 -27.581 -17.379  1.00  0.00    -0.624 OA
ATOM   8067  O13 POP   100      -5.091 -26.392 -22.222  1.00  0.00    -0.646 OA
ATOM   8068  O13 POP   100      -2.965 -26.714 -21.640  1.00  0.00    -0.646 OA
ATOM   8069  O14 POP   100      -3.436 -29.878 -16.733  1.00  0.00    -0.624 OA
ATOM   8070  C21 POP   100      -7.360 -25.304 -16.491  1.00  0.00     0.259 C 
ATOM   8071  O21 POP   100      -6.421 -26.092 -16.018  1.00  0.00    -0.312 OA
ATOM   8072  C22 POP   100      -6.927 -23.832 -16.336  1.00  0.00     0.111 C 
ATOM   8073  O22 POP   100      -8.364 -25.687 -17.069  1.00  0.00    -0.265 OA
ATOM   8074  C23 POP   100      -7.012 -23.363 -14.861  1.00  0.00     0.010 C 
ATOM   8075  C24 POP   100      -5.639 -23.168 -14.172  1.00  0.00     0.000 C 
ATOM   8076  C25 POP   100      -4.849 -24.481 -14.001  1.00  0.00     0.000 C 
ATOM   8077  C26 POP   100      -3.569 -24.450 -13.132  1.00  0.00     0.000 C 
ATOM   8078  C27 POP   100      -3.201 -25.886 -12.678  1.00  0.00     0.004 C 
ATOM   8079  C28 POP   100      -2.043 -26.053 -11.665  1.00  0.00     0.027 C 
ATOM   8080  C29 POP   100      -2.237 -25.207 -10.426  1.00  0.00    -0.031 C 
ATOM   8081  C31 POP   100      -8.265 -27.266 -12.447  1.00  0.00     0.258 C 
ATOM   8082  O31 POP   100      -7.648 -26.862 -13.538  1.00  0.00    -0.319 OA
ATOM   8083  C32 POP   100      -7.896 -26.325 -11.318  1.00  0.00     0.111 C 
ATOM   8084  O32 POP   100      -9.045 -28.198 -12.359  1.00  0.00    -0.265 OA
ATOM   8085  C33 POP   100      -8.737 -26.600 -10.068  1.00  0.00     0.010 C 
ATOM   8086  C34 POP   100      -8.676 -25.384  -9.175  1.00  0.00     0.000 C 
ATOM   8087  C35 POP   100      -9.810 -25.364  -8.185  1.00  0.00     0.000 C 
ATOM   8088  C36 POP   100     -10.123 -26.594  -7.276  1.00  0.00     0.000 C 
ATOM   8089  C37 POP   100     -11.328 -26.620  -6.299  1.00  0.00     0.000 C 
ATOM   8090  C38 POP   100     -11.280 -27.497  -5.071  1.00  0.00     0.000 C 
ATOM   8091  C39 POP   100     -10.137 -27.588  -4.095  1.00  0.00     0.000 C 
ATOM   8092  C21 POP   100      -3.062 -25.434  -9.380  1.00  0.00    -0.031 C 
ATOM   8093  C21 POP   100      -4.000 -26.601  -9.195  1.00  0.00     0.027 C 
ATOM   8094  C21 POP   100      -4.267 -27.027  -7.727  1.00  0.00     0.004 C 
ATOM   8095  C21 POP   100      -5.207 -26.096  -6.927  1.00  0.00     0.000 C 
ATOM   8096  C21 POP   100      -5.402 -26.559  -5.474  1.00  0.00     0.000 C 
ATOM   8097  C21 POP   100      -6.462 -25.730  -4.722  1.00  0.00     0.000 C 
ATOM   8098  C21 POP   100      -6.743 -26.258  -3.303  1.00  0.00    -0.000 C 
ATOM   8099  C21 POP   100      -7.706 -25.410  -2.451  1.00  0.00    -0.005 C 
ATOM   8100  C21 POP   100      -7.410 -23.911  -2.261  1.00  0.00     0.005 C 
ATOM   8101  C31 POP   100     -10.262 -28.958  -3.526  1.00  0.00     0.000 C 
ATOM   8102  C31 POP   100      -9.199 -29.316  -2.554  1.00  0.00     0.000 C 
ATOM   8103  C31 POP   100      -9.064 -30.824  -2.497  1.00  0.00     0.000 C 
ATOM   8104  C31 POP   100      -8.153 -31.260  -1.363  1.00  0.00     0.000 C 
ATOM   8105  C31 POP   100      -6.803 -30.539  -1.299  1.00  0.00    -0.000 C 
ATOM   8106  C31 POP   100      -5.878 -30.687  -2.501  1.00  0.00    -0.005 C 
ATOM   8107  C31 POP   100      -5.496 -32.145  -2.756  1.00  0.00     0.005 C 
ATOM   8108  HN1 POP   100      -6.232 -26.950 -18.728  1.00  0.00     0.275 HD
ATOM   8109  HN2 POP   100      -6.008 -25.412 -19.465  1.00  0.00     0.275 HD
ATOM   8110  HN3 POP   100      -6.649 -26.691 -20.395  1.00  0.00     0.275 HD
ATOM   8111  P   POP   101     -28.852   9.524 -19.954  1.00  0.00     0.408 P 
ATOM   8112  C1  POP   101     -28.519   7.822 -17.991  1.00  0.00     0.216 C 
ATOM   8113  C2  POP   101     -29.864   7.255 -17.471  1.00  0.00     0.180 C 
ATOM   8114  O2  POP   101     -32.899   8.648 -21.020  1.00  0.00    -0.390 OA
ATOM   8115  C3  POP   101     -29.815   5.821 -16.892  1.00  0.00     0.213 C 
ATOM   8116  O3  POP   101     -33.666  10.125 -23.343  1.00  0.00    -0.390 OA
ATOM   8117  O4  POP   101     -33.049   8.028 -25.192  1.00  0.00    -0.390 OA
ATOM   8118  O5  POP   101     -31.127   6.046 -24.459  1.00  0.00    -0.390 OA
ATOM   8119  O6  POP   101     -29.387   6.520 -22.325  1.00  0.00    -0.390 OA
ATOM   8120  C11 POP   101     -30.562   8.623 -21.778  1.00  0.00     0.197 C 
ATOM   8121  O11 POP   101     -28.686   9.188 -18.414  1.00  0.00    -0.287 OA
ATOM   8122  C12 POP   101     -31.927   9.312 -21.835  1.00  0.00     0.181 C 
ATOM   8123  O12 POP   101     -30.142   8.581 -20.405  1.00  0.00    -0.279 OA
ATOM   8124  C13 POP   101     -32.425   9.413 -23.272  1.00  0.00     0.180 C 
ATOM   8125  O13 POP   101     -29.296  10.918 -20.181  1.00  0.00    -0.624 OA
ATOM   8126  C14 POP   101     -32.497   8.017 -23.878  1.00  0.00     0.180 C 
ATOM   8127  O14 POP   101     -27.670   9.031 -20.705  1.00  0.00    -0.624 OA
ATOM   8128  C15 POP   101     -31.133   7.323 -23.806  1.00  0.00     0.180 C 
ATOM   8129  C16 POP   101     -30.627   7.226 -22.371  1.00  0.00     0.181 C 
ATOM   8130  C21 POP   101     -31.581   8.136 -16.180  1.00  0.00     0.259 C 
ATOM   8131  O21 POP   101     -30.305   8.149 -16.458  1.00  0.00    -0.312 OA
ATOM   8132  C22 POP   101     -31.878   9.323 -15.266  1.00  0.00     0.111 C 
ATOM   8133  O22 POP   101     -32.398   7.366 -16.652  1.00  0.00    -0.265 OA
ATOM   8134  C23 POP   101     -30.795  10.435 -15.362  1.00  0.00     0.010 C 
ATOM   8135  C24 POP   101     -29.830  10.530 -14.171  1.00  0.00     0.000 C 
ATOM   8136  C25 POP   101     -28.972   9.307 -13.791  1.00  0.00     0.000 C 
ATOM   8137  C26 POP   101     -28.081   9.525 -12.531  1.00  0.00     0.000 C 
ATOM   8138  C27 POP   101     -28.713  10.205 -11.282  1.00  0.00     0.004 C 
ATOM   8139  C28 POP   101     -29.090   9.279 -10.099  1.00  0.00     0.027 C 
ATOM   8140  C29 POP   101     -30.166   8.273 -10.433  1.00  0.00    -0.031 C 
ATOM   8141  C31 POP   101     -29.597   5.765 -14.548  1.00  0.00     0.258 C 
ATOM   8142  O31 POP   101     -28.971   5.784 -15.727  1.00  0.00    -0.319 OA
ATOM   8143  C32 POP   101     -28.562   5.818 -13.445  1.00  0.00     0.111 C 
ATOM   8144  O32 POP   101     -30.795   5.681 -14.369  1.00  0.00    -0.265 OA
ATOM   8145  C33 POP   101     -28.025   4.409 -13.142  1.00  0.00     0.010 C 
ATOM   8146  C34 POP   101     -28.978   3.543 -12.301  1.00  0.00     0.000 C 
ATOM   8147  C35 POP   101     -29.178   3.990 -10.837  1.00  0.00     0.000 C 
ATOM   8148  C36 POP   101     -27.897   4.415 -10.091  1.00  0.00     0.000 C 
ATOM   8149  C37 POP   101     -28.074   4.505  -8.569  1.00  0.00     0.000 C 
ATOM   8150  C38 POP   101     -26.896   5.197  -7.856  1.00  0.00     0.000 C 
ATOM   8151  C39 POP   101     -26.957   5.002  -6.338  1.00  0.00     0.000 C 
ATOM   8152  C21 POP   101     -31.489   8.308 -10.145  1.00  0.00    -0.031 C 
ATOM   8153  C21 POP   101     -32.289   9.360  -9.404  1.00  0.00     0.027 C 
ATOM   8154  C21 POP   101     -33.322   8.811  -8.377  1.00  0.00     0.004 C 
ATOM   8155  C21 POP   101     -32.846   7.720  -7.389  1.00  0.00     0.000 C 
ATOM   8156  C21 POP   101     -31.952   8.226  -6.246  1.00  0.00     0.000 C 
ATOM   8157  C21 POP   101     -31.909   7.277  -5.033  1.00  0.00     0.000 C 
ATOM   8158  C21 POP   101     -31.172   5.958  -5.275  1.00  0.00    -0.000 C 
ATOM   8159  C21 POP   101     -30.892   5.172  -3.983  1.00  0.00    -0.005 C 
ATOM   8160  C21 POP   101     -32.096   4.735  -3.133  1.00  0.00     0.005 C 
ATOM   8161  C31 POP   101     -25.681   5.490  -5.635  1.00  0.00     0.000 C 
ATOM   8162  C31 POP   101     -25.637   5.005  -4.181  1.00  0.00     0.000 C 
ATOM   8163  C31 POP   101     -26.568   5.821  -3.266  1.00  0.00     0.000 C 
ATOM   8164  C31 POP   101     -26.776   5.119  -1.914  1.00  0.00     0.000 C 
ATOM   8165  C31 POP   101     -27.729   5.780  -0.899  1.00  0.00    -0.000 C 
ATOM   8166  C31 POP   101     -27.439   7.242  -0.542  1.00  0.00    -0.005 C 
ATOM   8167  C31 POP   101     -28.410   7.780   0.512  1.00  0.00     0.005 C 
ATOM   8168  HO2 POP   101     -32.939   9.039 -20.140  1.00  0.00     0.210 HD
ATOM   8169  HO3 POP   101     -33.510  11.068 -23.402  1.00  0.00     0.210 HD
ATOM   8170  HO4 POP   101     -32.445   8.467 -25.793  1.00  0.00     0.210 HD
ATOM   8171  HO5 POP   101     -31.997   5.634 -24.394  1.00  0.00     0.210 HD
ATOM   8172  HO6 POP   101     -29.579   5.576 -22.257  1.00  0.00     0.210 HD
ATOM   8173  P   POP   102      16.505  27.357 -19.588  1.00  0.00     0.408 P 
ATOM   8174  C1  POP   102      13.951  27.031 -19.077  1.00  0.00     0.216 C 
ATOM   8175  C2  POP   102      12.953  27.624 -18.044  1.00  0.00     0.180 C 
ATOM   8176  O2  POP   102      16.608  31.059 -21.518  1.00  0.00    -0.390 OA
ATOM   8177  C3  POP   102      12.862  26.861 -16.694  1.00  0.00     0.213 C 
ATOM   8178  O3  POP   102      19.111  31.459 -22.867  1.00  0.00    -0.390 OA
ATOM   8179  O4  POP   102      18.425  30.474 -25.343  1.00  0.00    -0.390 OA
ATOM   8180  O5  POP   102      16.033  28.841 -25.593  1.00  0.00    -0.390 OA
ATOM   8181  O6  POP   102      15.241  27.428 -23.279  1.00  0.00    -0.390 OA
ATOM   8182  C11 POP   102      16.798  28.641 -21.894  1.00  0.00     0.197 C 
ATOM   8183  O11 POP   102      15.285  27.259 -18.604  1.00  0.00    -0.287 OA
ATOM   8184  C12 POP   102      17.514  29.973 -21.730  1.00  0.00     0.181 C 
ATOM   8185  O12 POP   102      15.952  28.393 -20.750  1.00  0.00    -0.279 OA
ATOM   8186  C13 POP   102      18.378  30.230 -22.962  1.00  0.00     0.180 C 
ATOM   8187  O13 POP   102      17.626  28.025 -18.907  1.00  0.00    -0.624 OA
ATOM   8188  C14 POP   102      17.546  30.228 -24.233  1.00  0.00     0.180 C 
ATOM   8189  O14 POP   102      16.744  26.018 -20.156  1.00  0.00    -0.624 OA
ATOM   8190  C15 POP   102      16.807  28.910 -24.380  1.00  0.00     0.180 C 
ATOM   8191  C16 POP   102      15.958  28.651 -23.150  1.00  0.00     0.181 C 
ATOM   8192  C21 POP   102      13.362  29.815 -18.703  1.00  0.00     0.259 C 
ATOM   8193  O21 POP   102      13.337  28.954 -17.717  1.00  0.00    -0.312 OA
ATOM   8194  C22 POP   102      14.045  31.058 -18.139  1.00  0.00     0.111 C 
ATOM   8195  O22 POP   102      12.820  29.713 -19.789  1.00  0.00    -0.265 OA
ATOM   8196  C23 POP   102      15.475  30.707 -17.641  1.00  0.00     0.010 C 
ATOM   8197  C24 POP   102      16.422  31.895 -17.443  1.00  0.00     0.000 C 
ATOM   8198  C25 POP   102      17.843  31.474 -17.017  1.00  0.00     0.000 C 
ATOM   8199  C26 POP   102      18.001  30.706 -15.688  1.00  0.00     0.000 C 
ATOM   8200  C27 POP   102      17.289  31.393 -14.512  1.00  0.00     0.004 C 
ATOM   8201  C28 POP   102      17.388  30.635 -13.171  1.00  0.00     0.027 C 
ATOM   8202  C29 POP   102      16.586  29.354 -13.089  1.00  0.00    -0.031 C 
ATOM   8203  C31 POP   102      14.547  25.357 -16.121  1.00  0.00     0.258 C 
ATOM   8204  O31 POP   102      14.154  26.613 -16.115  1.00  0.00    -0.319 OA
ATOM   8205  C32 POP   102      15.881  25.274 -15.401  1.00  0.00     0.111 C 
ATOM   8206  O32 POP   102      13.892  24.406 -16.511  1.00  0.00    -0.265 OA
ATOM   8207  C33 POP   102      15.725  24.499 -14.077  1.00  0.00     0.010 C 
ATOM   8208  C34 POP   102      15.138  25.330 -12.926  1.00  0.00     0.000 C 
ATOM   8209  C35 POP   102      13.620  25.235 -12.820  1.00  0.00     0.000 C 
ATOM   8210  C36 POP   102      13.066  25.822 -11.526  1.00  0.00     0.000 C 
ATOM   8211  C37 POP   102      11.581  25.447 -11.475  1.00  0.00     0.000 C 
ATOM   8212  C38 POP   102      10.793  26.091 -10.347  1.00  0.00     0.000 C 
ATOM   8213  C39 POP   102      11.204  25.604  -8.960  1.00  0.00     0.000 C 
ATOM   8214  C21 POP   102      15.702  29.045 -12.109  1.00  0.00    -0.031 C 
ATOM   8215  C21 POP   102      15.327  29.890 -10.905  1.00  0.00     0.027 C 
ATOM   8216  C21 POP   102      16.351  29.877  -9.731  1.00  0.00     0.004 C 
ATOM   8217  C21 POP   102      16.402  28.548  -8.957  1.00  0.00     0.000 C 
ATOM   8218  C21 POP   102      17.070  28.627  -7.564  1.00  0.00     0.000 C 
ATOM   8219  C21 POP   102      16.320  27.739  -6.550  1.00  0.00     0.000 C 
ATOM   8220  C21 POP   102      17.045  27.376  -5.235  1.00  0.00    -0.000 C 
ATOM   8221  C21 POP   102      17.654  28.563  -4.481  1.00  0.00    -0.005 C 
ATOM   8222  C21 POP   102      17.894  28.277  -2.988  1.00  0.00     0.005 C 
ATOM   8223  C31 POP   102      10.255  26.160  -7.898  1.00  0.00     0.000 C 
ATOM   8224  C31 POP   102      10.687  25.774  -6.483  1.00  0.00     0.000 C 
ATOM   8225  C31 POP   102      12.007  26.456  -6.070  1.00  0.00     0.000 C 
ATOM   8226  C31 POP   102      12.265  26.500  -4.548  1.00  0.00     0.000 C 
ATOM   8227  C31 POP   102      13.167  27.683  -4.123  1.00  0.00    -0.000 C 
ATOM   8228  C31 POP   102      13.469  27.811  -2.611  1.00  0.00    -0.005 C 
ATOM   8229  C31 POP   102      13.947  26.520  -1.919  1.00  0.00     0.005 C 
ATOM   8230  HO2 POP   102      16.399  31.030 -20.582  1.00  0.00     0.210 HD
ATOM   8231  HO3 POP   102      20.063  31.369 -22.942  1.00  0.00     0.210 HD
ATOM   8232  HO4 POP   102      18.482  31.428 -25.432  1.00  0.00     0.210 HD
ATOM   8233  HO5 POP   102      15.305  29.464 -25.580  1.00  0.00     0.210 HD
ATOM   8234  HO6 POP   102      14.323  27.674 -23.201  1.00  0.00     0.210 HD
ATOM   8235  N   DYP   103     -24.149  20.495 -21.025  1.00  0.00    -0.077 N 
ATOM   8236  P   DYP   103     -25.960  19.521 -16.844  1.00  0.00     0.408 P 
ATOM   8237  C1  DYP   103     -24.959  21.885 -16.230  1.00  0.00     0.216 C 
ATOM   8238  C2  DYP   103     -24.139  21.948 -14.899  1.00  0.00     0.180 C 
ATOM   8239  C3  DYP   103     -23.409  23.329 -14.750  1.00  0.00     0.213 C 
ATOM   8240  C11 DYP   103     -25.474  18.951 -19.319  1.00  0.00     0.209 C 
ATOM   8241  O11 DYP   103     -26.027  20.946 -16.160  1.00  0.00    -0.287 OA
ATOM   8242  C12 DYP   103     -25.403  19.705 -20.662  1.00  0.00     0.262 C 
ATOM   8243  O12 DYP   103     -25.392  19.908 -18.277  1.00  0.00    -0.288 OA
ATOM   8244  C13 DYP   103     -22.919  19.642 -20.903  1.00  0.00     0.271 C 
ATOM   8245  O13 DYP   103     -24.943  18.667 -16.206  1.00  0.00    -0.624 OA
ATOM   8246  C14 DYP   103     -24.005  21.713 -20.165  1.00  0.00     0.271 C 
ATOM   8247  O14 DYP   103     -27.329  18.983 -16.998  1.00  0.00    -0.624 OA
ATOM   8248  C15 DYP   103     -24.284  21.006 -22.418  1.00  0.00     0.271 C 
ATOM   8249  C21 DYP   103     -24.998  20.637 -13.132  1.00  0.00     0.259 C 
ATOM   8250  O21 DYP   103     -25.043  21.781 -13.786  1.00  0.00    -0.312 OA
ATOM   8251  C22 DYP   103     -26.126  20.586 -12.106  1.00  0.00     0.111 C 
ATOM   8252  O22 DYP   103     -24.137  19.782 -13.211  1.00  0.00    -0.265 OA
ATOM   8253  C23 DYP   103     -25.820  19.440 -11.115  1.00  0.00     0.010 C 
ATOM   8254  C24 DYP   103     -26.855  19.340 -10.003  1.00  0.00     0.000 C 
ATOM   8255  C25 DYP   103     -26.670  18.220  -8.980  1.00  0.00     0.000 C 
ATOM   8256  C26 DYP   103     -27.674  18.257  -7.813  1.00  0.00     0.000 C 
ATOM   8257  C27 DYP   103     -27.296  19.210  -6.736  1.00  0.00     0.004 C 
ATOM   8258  C28 DYP   103     -28.439  19.642  -5.821  1.00  0.00     0.027 C 
ATOM   8259  C29 DYP   103     -28.732  18.560  -4.819  1.00  0.00    -0.031 C 
ATOM   8260  C31 DYP   103     -21.528  23.086 -13.403  1.00  0.00     0.258 C 
ATOM   8261  O31 DYP   103     -22.776  23.501 -13.472  1.00  0.00    -0.319 OA
ATOM   8262  C32 DYP   103     -21.129  23.099 -11.924  1.00  0.00     0.111 C 
ATOM   8263  O32 DYP   103     -20.835  22.739 -14.342  1.00  0.00    -0.265 OA
ATOM   8264  C33 DYP   103     -22.338  22.654 -11.056  1.00  0.00     0.010 C 
ATOM   8265  C34 DYP   103     -22.039  22.425  -9.570  1.00  0.00     0.000 C 
ATOM   8266  C35 DYP   103     -21.376  21.075  -9.253  1.00  0.00     0.000 C 
ATOM   8267  C36 DYP   103     -22.112  19.801  -9.707  1.00  0.00     0.000 C 
ATOM   8268  C37 DYP   103     -21.363  18.519  -9.300  1.00  0.00     0.004 C 
ATOM   8269  C38 DYP   103     -21.277  18.233  -7.780  1.00  0.00     0.027 C 
ATOM   8270  C39 DYP   103     -22.589  17.816  -7.160  1.00  0.00    -0.031 C 
ATOM   8271  C21 DYP   103     -28.083  18.104  -3.728  1.00  0.00    -0.031 C 
ATOM   8272  C21 DYP   103     -26.810  18.492  -3.048  1.00  0.00     0.027 C 
ATOM   8273  C21 DYP   103     -27.522  19.155  -1.856  1.00  0.00     0.004 C 
ATOM   8274  C21 DYP   103     -26.477  20.043  -0.998  1.00  0.00     0.000 C 
ATOM   8275  C21 DYP   103     -24.707  20.938  -1.277  1.00  0.00    -0.000 C 
ATOM   8276  C21 DYP   103     -23.718  21.426  -0.057  1.00  0.00    -0.005 C 
ATOM   8277  C21 DYP   103     -22.352  21.832  -0.412  1.00  0.00     0.005 C 
ATOM   8278  C31 DYP   103     -23.124  18.259  -6.008  1.00  0.00    -0.031 C 
ATOM   8279  C31 DYP   103     -22.556  19.276  -5.049  1.00  0.00     0.027 C 
ATOM   8280  C31 DYP   103     -21.884  18.712  -3.783  1.00  0.00     0.004 C 
ATOM   8281  C31 DYP   103     -22.787  17.853  -2.909  1.00  0.00     0.000 C 
ATOM   8282  C31 DYP   103     -22.759  16.347  -3.200  1.00  0.00    -0.000 C 
ATOM   8283  C31 DYP   103     -22.212  15.525  -2.028  1.00  0.00    -0.005 C 
ATOM   8284  C31 DYP   103     -23.030  15.736  -0.755  1.00  0.00     0.005 C 
ATOM   8285  N   YOP   104     -13.551 -29.475 -20.195  1.00  0.00    -0.077 N 
ATOM   8286  P   YOP   104     -16.665 -27.192 -17.978  1.00  0.00     0.408 P 
ATOM   8287  C1  YOP   104     -14.718 -26.647 -16.260  1.00  0.00     0.216 C 
ATOM   8288  C2  YOP   104     -14.368 -26.742 -14.738  1.00  0.00     0.180 C 
ATOM   8289  C3  YOP   104     -14.910 -25.559 -13.902  1.00  0.00     0.213 C 
ATOM   8290  C11 YOP   104     -15.330 -29.488 -18.232  1.00  0.00     0.209 C 
ATOM   8291  O11 YOP   104     -15.945 -27.304 -16.561  1.00  0.00    -0.287 OA
ATOM   8292  C12 YOP   104     -13.875 -29.275 -18.721  1.00  0.00     0.262 C 
ATOM   8293  O12 YOP   104     -16.193 -28.492 -18.744  1.00  0.00    -0.288 OA
ATOM   8294  C13 YOP   104     -14.281 -28.509 -21.092  1.00  0.00     0.271 C 
ATOM   8295  O13 YOP   104     -16.098 -26.042 -18.717  1.00  0.00    -0.624 OA
ATOM   8296  C14 YOP   104     -12.090 -29.240 -20.400  1.00  0.00     0.271 C 
ATOM   8297  O14 YOP   104     -18.120 -27.284 -17.758  1.00  0.00    -0.624 OA
ATOM   8298  C15 YOP   104     -13.854 -30.883 -20.606  1.00  0.00     0.271 C 
ATOM   8299  C21 YOP   104     -14.285 -29.083 -14.482  1.00  0.00     0.259 C 
ATOM   8300  O21 YOP   104     -14.836 -27.954 -14.096  1.00  0.00    -0.312 OA
ATOM   8301  C22 YOP   104     -14.895 -30.262 -13.694  1.00  0.00     0.111 C 
ATOM   8302  O22 YOP   104     -13.395 -29.195 -15.310  1.00  0.00    -0.265 OA
ATOM   8303  C23 YOP   104     -14.038 -31.556 -13.843  1.00  0.00     0.010 C 
ATOM   8304  C24 YOP   104     -12.583 -31.517 -13.306  1.00  0.00     0.000 C 
ATOM   8305  C25 YOP   104     -12.367 -31.144 -11.824  1.00  0.00     0.000 C 
ATOM   8306  C26 YOP   104     -12.348 -29.628 -11.595  1.00  0.00     0.000 C 
ATOM   8307  C27 YOP   104     -12.003 -29.213 -10.163  1.00  0.00     0.004 C 
ATOM   8308  C28 YOP   104     -13.121 -29.560  -9.189  1.00  0.00     0.027 C 
ATOM   8309  C29 YOP   104     -12.951 -28.925  -7.885  1.00  0.00    -0.031 C 
ATOM   8310  C31 YOP   104     -13.920 -24.778 -11.908  1.00  0.00     0.258 C 
ATOM   8311  O31 YOP   104     -14.502 -25.762 -12.536  1.00  0.00    -0.319 OA
ATOM   8312  C32 YOP   104     -13.537 -25.277 -10.516  1.00  0.00     0.111 C 
ATOM   8313  O32 YOP   104     -13.716 -23.659 -12.348  1.00  0.00    -0.265 OA
ATOM   8314  C33 YOP   104     -13.924 -24.271  -9.397  1.00  0.00     0.010 C 
ATOM   8315  C34 YOP   104     -13.155 -24.570  -8.115  1.00  0.00     0.000 C 
ATOM   8316  C35 YOP   104     -13.148 -23.506  -6.997  1.00  0.00     0.000 C 
ATOM   8317  C36 YOP   104     -12.548 -23.886  -5.622  1.00  0.00     0.000 C 
ATOM   8318  C37 YOP   104     -11.003 -23.696  -5.587  1.00  0.00     0.004 C 
ATOM   8319  C38 YOP   104     -10.153 -24.275  -4.444  1.00  0.00     0.027 C 
ATOM   8320  C39 YOP   104     -10.597 -23.870  -3.085  1.00  0.00    -0.031 C 
ATOM   8321  C21 YOP   104     -12.494 -29.465  -6.770  1.00  0.00    -0.031 C 
ATOM   8322  C21 YOP   104     -11.966 -30.777  -6.277  1.00  0.00     0.027 C 
ATOM   8323  C21 YOP   104     -12.883 -31.397  -5.210  1.00  0.00     0.004 C 
ATOM   8324  C21 YOP   104     -13.030 -30.596  -3.905  1.00  0.00     0.000 C 
ATOM   8325  C21 YOP   104     -13.920 -31.212  -2.830  1.00  0.00     0.000 C 
ATOM   8326  C21 YOP   104     -13.370 -32.551  -2.329  1.00  0.00     0.000 C 
ATOM   8327  C21 YOP   104     -14.333 -33.251  -1.365  1.00  0.00    -0.000 C 
ATOM   8328  C21 YOP   104     -14.229 -32.892   0.112  1.00  0.00    -0.005 C 
ATOM   8329  C21 YOP   104     -12.897 -33.204   0.745  1.00  0.00     0.005 C 
ATOM   8330  C31 YOP   104     -11.433 -24.462  -2.194  1.00  0.00    -0.031 C 
ATOM   8331  C31 YOP   104     -12.230 -25.749  -2.252  1.00  0.00     0.027 C 
ATOM   8332  C31 YOP   104     -12.366 -26.518  -0.916  1.00  0.00     0.004 C 
ATOM   8333  C31 YOP   104     -13.082 -27.876  -1.074  1.00  0.00     0.000 C 
ATOM   8334  C31 YOP   104     -13.289 -28.684   0.221  1.00  0.00    -0.000 C 
ATOM   8335  C31 YOP   104     -14.276 -28.025   1.190  1.00  0.00    -0.005 C 
ATOM   8336  C31 YOP   104     -15.779 -28.197   0.911  1.00  0.00     0.005 C 
ATOM   8337  N   POP   105      13.168 -30.040 -16.823  1.00  0.00    -0.063 N 
ATOM   8338  P   POP   105      11.787 -28.760 -20.631  1.00  0.00     0.408 P 
ATOM   8339  C1  POP   105      10.439 -27.680 -18.675  1.00  0.00     0.216 C 
ATOM   8340  C2  POP   105      10.559 -26.744 -17.446  1.00  0.00     0.180 C 
ATOM   8341  C3  POP   105       9.438 -26.987 -16.389  1.00  0.00     0.213 C 
ATOM   8342  C11 POP   105      13.851 -29.421 -19.161  1.00  0.00     0.225 C 
ATOM   8343  O11 POP   105      11.603 -27.641 -19.519  1.00  0.00    -0.287 OA
ATOM   8344  C12 POP   105      14.061 -30.395 -17.987  1.00  0.00     0.307 C 
ATOM   8345  O12 POP   105      12.617 -29.781 -19.778  1.00  0.00    -0.287 OA
ATOM   8346  C13 POP   105      15.547 -30.547 -17.617  1.00  0.00     0.206 C 
ATOM   8347  O13 POP   105      10.469 -29.392 -20.906  1.00  0.00    -0.624 OA
ATOM   8348  O13 POP   105      15.858 -30.503 -16.398  1.00  0.00    -0.646 OA
ATOM   8349  O13 POP   105      16.373 -30.724 -18.544  1.00  0.00    -0.646 OA
ATOM   8350  O14 POP   105      12.574 -28.214 -21.747  1.00  0.00    -0.624 OA
ATOM   8351  C21 POP   105      12.325 -26.187 -15.996  1.00  0.00     0.259 C 
ATOM   8352  O21 POP   105      11.874 -27.022 -16.910  1.00  0.00    -0.312 OA
ATOM   8353  C22 POP   105      13.771 -26.594 -15.705  1.00  0.00     0.111 C 
ATOM   8354  O22 POP   105      11.710 -25.260 -15.511  1.00  0.00    -0.265 OA
ATOM   8355  C23 POP   105      14.488 -25.645 -14.709  1.00  0.00     0.010 C 
ATOM   8356  C24 POP   105      15.744 -26.245 -14.029  1.00  0.00     0.000 C 
ATOM   8357  C25 POP   105      15.581 -27.677 -13.461  1.00  0.00     0.000 C 
ATOM   8358  C26 POP   105      14.495 -27.867 -12.384  1.00  0.00     0.000 C 
ATOM   8359  C27 POP   105      14.829 -27.093 -11.101  1.00  0.00     0.004 C 
ATOM   8360  C28 POP   105      13.785 -27.268  -9.985  1.00  0.00     0.027 C 
ATOM   8361  C29 POP   105      13.968 -26.308  -8.832  1.00  0.00    -0.031 C 
ATOM   8362  C31 POP   105       8.754 -29.066 -15.466  1.00  0.00     0.258 C 
ATOM   8363  O31 POP   105       9.731 -28.261 -15.803  1.00  0.00    -0.319 OA
ATOM   8364  C32 POP   105       9.351 -30.289 -14.820  1.00  0.00     0.111 C 
ATOM   8365  O32 POP   105       7.569 -28.897 -15.581  1.00  0.00    -0.265 OA
ATOM   8366  C33 POP   105       9.274 -30.151 -13.293  1.00  0.00     0.010 C 
ATOM   8367  C34 POP   105      10.193 -29.031 -12.793  1.00  0.00     0.000 C 
ATOM   8368  C35 POP   105      10.310 -28.988 -11.263  1.00  0.00     0.000 C 
ATOM   8369  C36 POP   105       9.067 -28.500 -10.484  1.00  0.00     0.000 C 
ATOM   8370  C37 POP   105       8.829 -29.320  -9.200  1.00  0.00     0.000 C 
ATOM   8371  C38 POP   105       9.939 -29.075  -8.165  1.00  0.00     0.000 C 
ATOM   8372  C39 POP   105      10.092 -30.217  -7.136  1.00  0.00     0.000 C 
ATOM   8373  C21 POP   105      14.601 -26.520  -7.663  1.00  0.00    -0.031 C 
ATOM   8374  C21 POP   105      15.304 -27.761  -7.172  1.00  0.00     0.027 C 
ATOM   8375  C21 POP   105      14.613 -28.318  -5.912  1.00  0.00     0.004 C 
ATOM   8376  C21 POP   105      15.164 -29.664  -5.414  1.00  0.00     0.000 C 
ATOM   8377  C21 POP   105      14.910 -30.799  -6.410  1.00  0.00     0.000 C 
ATOM   8378  C21 POP   105      15.355 -32.175  -5.959  1.00  0.00     0.000 C 
ATOM   8379  C21 POP   105      14.307 -32.701  -5.083  1.00  0.00    -0.000 C 
ATOM   8380  C21 POP   105      14.686 -32.480  -3.669  1.00  0.00    -0.005 C 
ATOM   8381  C21 POP   105      13.381 -32.822  -3.153  1.00  0.00     0.005 C 
ATOM   8382  C31 POP   105      10.812 -29.882  -5.805  1.00  0.00     0.000 C 
ATOM   8383  C31 POP   105      10.071 -29.003  -4.777  1.00  0.00     0.000 C 
ATOM   8384  C31 POP   105      10.958 -28.666  -3.552  1.00  0.00     0.000 C 
ATOM   8385  C31 POP   105      10.402 -27.499  -2.712  1.00  0.00     0.000 C 
ATOM   8386  C31 POP   105       9.082 -27.814  -1.984  1.00  0.00    -0.000 C 
ATOM   8387  C31 POP   105       9.265 -28.656  -0.714  1.00  0.00    -0.005 C 
ATOM   8388  C31 POP   105       9.436 -27.820   0.558  1.00  0.00     0.005 C 
ATOM   8389  HN1 POP   105      13.458 -29.118 -16.450  1.00  0.00     0.275 HD
ATOM   8390  HN2 POP   105      12.179 -29.985 -17.129  1.00  0.00     0.275 HD
ATOM   8391  HN3 POP   105      13.343 -30.768 -16.102  1.00  0.00     0.275 HD
ATOM   8392  P   YOP   106      30.702 -11.723 -19.183  1.00  0.00     0.406 P 
ATOM   8393  C1  YOP   106      31.674  -9.525 -18.109  1.00  0.00     0.216 C 
ATOM   8394  C2  YOP   106      32.979  -8.676 -18.178  1.00  0.00     0.180 C 
ATOM   8395  C3  YOP   106      32.695  -7.169 -17.881  1.00  0.00     0.213 C 
ATOM   8396  O11 YOP   106      31.883 -10.832 -18.656  1.00  0.00    -0.287 OA
ATOM   8397  O12 YOP   106      30.341 -12.752 -18.061  1.00  0.00    -0.300 OA
ATOM   8398  O13 YOP   106      31.198 -12.484 -20.336  1.00  0.00    -0.624 OA
ATOM   8399  O14 YOP   106      29.532 -10.872 -19.436  1.00  0.00    -0.624 OA
ATOM   8400  C21 YOP   106      34.776 -10.091 -17.588  1.00  0.00     0.259 C 
ATOM   8401  O21 YOP   106      33.921  -9.168 -17.220  1.00  0.00    -0.312 OA
ATOM   8402  C22 YOP   106      35.498 -10.578 -16.322  1.00  0.00     0.111 C 
ATOM   8403  O22 YOP   106      35.070 -10.425 -18.722  1.00  0.00    -0.265 OA
ATOM   8404  C23 YOP   106      34.819 -11.755 -15.584  1.00  0.00     0.010 C 
ATOM   8405  C24 YOP   106      33.510 -11.410 -14.842  1.00  0.00     0.000 C 
ATOM   8406  C25 YOP   106      33.035 -12.555 -13.922  1.00  0.00     0.000 C 
ATOM   8407  C26 YOP   106      31.789 -12.280 -13.039  1.00  0.00     0.000 C 
ATOM   8408  C27 YOP   106      30.460 -12.375 -13.815  1.00  0.00     0.004 C 
ATOM   8409  C28 YOP   106      29.189 -12.138 -12.952  1.00  0.00     0.027 C 
ATOM   8410  C29 YOP   106      28.892 -13.175 -11.890  1.00  0.00    -0.031 C 
ATOM   8411  C31 YOP   106      32.736  -6.886 -15.572  1.00  0.00     0.258 C 
ATOM   8412  O31 YOP   106      31.991  -6.948 -16.656  1.00  0.00    -0.319 OA
ATOM   8413  C32 YOP   106      31.796  -6.628 -14.402  1.00  0.00     0.111 C 
ATOM   8414  O32 YOP   106      33.944  -6.969 -15.504  1.00  0.00    -0.265 OA
ATOM   8415  C33 YOP   106      32.486  -6.736 -13.020  1.00  0.00     0.010 C 
ATOM   8416  C34 YOP   106      32.796  -8.188 -12.630  1.00  0.00     0.000 C 
ATOM   8417  C35 YOP   106      32.732  -8.472 -11.115  1.00  0.00     0.000 C 
ATOM   8418  C36 YOP   106      34.029  -8.263 -10.306  1.00  0.00     0.000 C 
ATOM   8419  C37 YOP   106      33.756  -8.258  -8.778  1.00  0.00     0.004 C 
ATOM   8420  C38 YOP   106      35.000  -8.349  -7.889  1.00  0.00     0.027 C 
ATOM   8421  C39 YOP   106      35.500  -9.759  -7.958  1.00  0.00    -0.031 C 
ATOM   8422  C21 YOP   106      28.527 -12.935 -10.607  1.00  0.00    -0.031 C 
ATOM   8423  C21 YOP   106      28.326 -11.591  -9.924  1.00  0.00     0.027 C 
ATOM   8424  C21 YOP   106      29.232 -11.310  -8.699  1.00  0.00     0.004 C 
ATOM   8425  C21 YOP   106      29.143  -9.893  -8.102  1.00  0.00     0.000 C 
ATOM   8426  C21 YOP   106      29.601  -9.905  -6.631  1.00  0.00     0.000 C 
ATOM   8427  C21 YOP   106      29.791  -8.505  -6.026  1.00  0.00     0.000 C 
ATOM   8428  C21 YOP   106      29.997  -8.485  -4.497  1.00  0.00    -0.000 C 
ATOM   8429  C21 YOP   106      30.871  -9.617  -3.947  1.00  0.00    -0.005 C 
ATOM   8430  C21 YOP   106      31.316  -9.366  -2.504  1.00  0.00     0.005 C 
ATOM   8431  C31 YOP   106      35.120 -10.899  -7.478  1.00  0.00    -0.031 C 
ATOM   8432  C31 YOP   106      33.939 -11.086  -6.637  1.00  0.00     0.027 C 
ATOM   8433  C31 YOP   106      34.322 -11.482  -5.206  1.00  0.00     0.004 C 
ATOM   8434  C31 YOP   106      35.018 -10.414  -4.334  1.00  0.00     0.000 C 
ATOM   8435  C31 YOP   106      35.068 -10.844  -2.862  1.00  0.00    -0.000 C 
ATOM   8436  C31 YOP   106      35.515  -9.740  -1.908  1.00  0.00    -0.005 C 
ATOM   8437  C31 YOP   106      35.455 -10.183  -0.454  1.00  0.00     0.005 C 
ATOM   8438  H12 YOP   106      30.647 -12.456 -17.207  1.00  0.00     0.223 HD
ATOM   8439  N   DYP   107      33.267   4.088 -21.156  1.00  0.00    -0.077 N 
ATOM   8440  P   DYP   107      32.863   3.703 -16.800  1.00  0.00     0.408 P 
ATOM   8441  C1  DYP   107      35.020   2.812 -15.502  1.00  0.00     0.216 C 
ATOM   8442  C2  DYP   107      35.539   1.622 -14.622  1.00  0.00     0.180 C 
ATOM   8443  C3  DYP   107      36.578   2.076 -13.547  1.00  0.00     0.213 C 
ATOM   8444  C11 DYP   107      33.767   2.566 -18.981  1.00  0.00     0.209 C 
ATOM   8445  O11 DYP   107      33.661   2.664 -15.892  1.00  0.00    -0.287 OA
ATOM   8446  C12 DYP   107      33.882   2.849 -20.506  1.00  0.00     0.262 C 
ATOM   8447  O12 DYP   107      33.662   3.743 -18.189  1.00  0.00    -0.288 OA
ATOM   8448  C13 DYP   107      31.845   4.222 -20.742  1.00  0.00     0.271 C 
ATOM   8449  O13 DYP   107      31.532   3.113 -17.053  1.00  0.00    -0.624 OA
ATOM   8450  C14 DYP   107      33.346   3.844 -22.625  1.00  0.00     0.271 C 
ATOM   8451  O14 DYP   107      32.918   5.059 -16.221  1.00  0.00    -0.624 OA
ATOM   8452  C15 DYP   107      34.003   5.335 -20.797  1.00  0.00     0.271 C 
ATOM   8453  C21 DYP   107      34.633  -0.121 -13.351  1.00  0.00     0.259 C 
ATOM   8454  O21 DYP   107      34.410   0.989 -13.993  1.00  0.00    -0.312 OA
ATOM   8455  C22 DYP   107      33.428  -0.419 -12.483  1.00  0.00     0.111 C 
ATOM   8456  O22 DYP   107      35.656  -0.783 -13.374  1.00  0.00    -0.265 OA
ATOM   8457  C23 DYP   107      33.565  -1.847 -11.937  1.00  0.00     0.010 C 
ATOM   8458  C24 DYP   107      32.264  -2.370 -11.329  1.00  0.00     0.000 C 
ATOM   8459  C25 DYP   107      31.808  -1.612 -10.070  1.00  0.00     0.000 C 
ATOM   8460  C26 DYP   107      32.884  -1.341  -9.020  1.00  0.00     0.000 C 
ATOM   8461  C27 DYP   107      33.570  -2.583  -8.464  1.00  0.00     0.004 C 
ATOM   8462  C28 DYP   107      34.912  -2.143  -7.942  1.00  0.00     0.027 C 
ATOM   8463  C29 DYP   107      35.555  -3.217  -7.184  1.00  0.00    -0.031 C 
ATOM   8464  C31 DYP   107      36.602   2.875 -11.353  1.00  0.00     0.258 C 
ATOM   8465  O31 DYP   107      35.876   2.646 -12.426  1.00  0.00    -0.319 OA
ATOM   8466  C32 DYP   107      35.657   3.238 -10.201  1.00  0.00     0.111 C 
ATOM   8467  O32 DYP   107      37.815   2.795 -11.280  1.00  0.00    -0.265 OA
ATOM   8468  C33 DYP   107      36.376   3.109  -8.841  1.00  0.00     0.010 C 
ATOM   8469  C34 DYP   107      35.476   3.207  -7.597  1.00  0.00     0.000 C 
ATOM   8470  C35 DYP   107      34.559   1.993  -7.360  1.00  0.00     0.000 C 
ATOM   8471  C36 DYP   107      33.938   1.966  -5.954  1.00  0.00     0.000 C 
ATOM   8472  C37 DYP   107      33.014   0.752  -5.804  1.00  0.00     0.004 C 
ATOM   8473  C38 DYP   107      32.512   0.503  -4.376  1.00  0.00     0.027 C 
ATOM   8474  C39 DYP   107      31.757   1.692  -3.842  1.00  0.00    -0.031 C 
ATOM   8475  C21 DYP   107      36.349  -2.830  -6.238  1.00  0.00    -0.031 C 
ATOM   8476  C21 DYP   107      36.710  -1.417  -5.802  1.00  0.00     0.027 C 
ATOM   8477  C21 DYP   107      36.064  -1.146  -4.414  1.00  0.00     0.004 C 
ATOM   8478  C21 DYP   107      36.795  -0.074  -3.468  1.00  0.00     0.000 C 
ATOM   8479  C21 DYP   107      38.227  -0.260  -2.775  1.00  0.00    -0.000 C 
ATOM   8480  C21 DYP   107      38.839   0.737  -1.923  1.00  0.00    -0.005 C 
ATOM   8481  C21 DYP   107      38.104   0.701  -0.655  1.00  0.00     0.005 C 
ATOM   8482  C31 DYP   107      32.118   2.399  -2.761  1.00  0.00    -0.031 C 
ATOM   8483  C31 DYP   107      33.322   2.115  -1.888  1.00  0.00     0.027 C 
ATOM   8484  C31 DYP   107      32.817   2.002  -0.492  1.00  0.00     0.004 C 
ATOM   8485  C31 DYP   107      31.536   1.102  -0.553  1.00  0.00     0.000 C 
ATOM   8486  C31 DYP   107      31.794  -0.404  -0.641  1.00  0.00    -0.000 C 
ATOM   8487  C31 DYP   107      30.536  -1.212  -0.276  1.00  0.00    -0.005 C 
ATOM   8488  C31 DYP   107      30.674  -2.723  -0.177  1.00  0.00     0.005 C 
ATOM   8489  N   YOP   108      -6.528  32.824 -19.429  1.00  0.00    -0.077 N 
ATOM   8490  P   YOP   108     -10.561  33.314 -18.634  1.00  0.00     0.408 P 
ATOM   8491  C1  YOP   108      -9.817  33.206 -16.096  1.00  0.00     0.216 C 
ATOM   8492  C2  YOP   108      -9.779  34.067 -14.799  1.00  0.00     0.180 C 
ATOM   8493  C3  YOP   108      -8.858  35.309 -15.024  1.00  0.00     0.213 C 
ATOM   8494  C11 YOP   108      -8.335  34.715 -18.858  1.00  0.00     0.209 C 
ATOM   8495  O11 YOP   108     -10.390  33.938 -17.190  1.00  0.00    -0.287 OA
ATOM   8496  C12 YOP   108      -7.319  33.622 -18.408  1.00  0.00     0.262 C 
ATOM   8497  O12 YOP   108      -9.498  34.173 -19.478  1.00  0.00    -0.288 OA
ATOM   8498  C13 YOP   108      -5.504  33.663 -20.103  1.00  0.00     0.271 C 
ATOM   8499  O13 YOP   108     -11.942  33.593 -19.071  1.00  0.00    -0.624 OA
ATOM   8500  C14 YOP   108      -5.766  31.768 -18.686  1.00  0.00     0.271 C 
ATOM   8501  O14 YOP   108     -10.072  31.918 -18.584  1.00  0.00    -0.624 OA
ATOM   8502  C15 YOP   108      -7.429  32.178 -20.434  1.00  0.00     0.271 C 
ATOM   8503  C21 YOP   108     -11.625  34.193 -13.339  1.00  0.00     0.259 C 
ATOM   8504  O21 YOP   108     -11.112  34.519 -14.505  1.00  0.00    -0.312 OA
ATOM   8505  C22 YOP   108     -12.923  34.978 -13.149  1.00  0.00     0.111 C 
ATOM   8506  O22 YOP   108     -11.124  33.457 -12.507  1.00  0.00    -0.265 OA
ATOM   8507  C23 YOP   108     -12.671  36.224 -12.263  1.00  0.00     0.010 C 
ATOM   8508  C24 YOP   108     -12.617  35.994 -10.747  1.00  0.00     0.000 C 
ATOM   8509  C25 YOP   108     -12.305  37.318 -10.029  1.00  0.00     0.000 C 
ATOM   8510  C26 YOP   108     -12.290  37.176  -8.506  1.00  0.00     0.000 C 
ATOM   8511  C27 YOP   108     -11.688  38.406  -7.804  1.00  0.00     0.004 C 
ATOM   8512  C28 YOP   108     -11.571  38.242  -6.286  1.00  0.00     0.027 C 
ATOM   8513  C29 YOP   108     -12.891  38.151  -5.599  1.00  0.00    -0.031 C 
ATOM   8514  C31 YOP   108      -8.258  36.070 -12.970  1.00  0.00     0.258 C 
ATOM   8515  O31 YOP   108      -8.997  36.362 -14.031  1.00  0.00    -0.319 OA
ATOM   8516  C32 YOP   108      -8.411  37.118 -11.857  1.00  0.00     0.111 C 
ATOM   8517  O32 YOP   108      -7.627  35.043 -12.887  1.00  0.00    -0.265 OA
ATOM   8518  C33 YOP   108      -8.681  36.487 -10.468  1.00  0.00     0.010 C 
ATOM   8519  C34 YOP   108      -7.416  36.440  -9.608  1.00  0.00     0.000 C 
ATOM   8520  C35 YOP   108      -7.589  35.601  -8.335  1.00  0.00     0.000 C 
ATOM   8521  C36 YOP   108      -8.461  36.119  -7.264  1.00  0.00     0.000 C 
ATOM   8522  C37 YOP   108      -8.334  35.267  -6.018  1.00  0.00     0.004 C 
ATOM   8523  C38 YOP   108      -7.017  35.626  -5.371  1.00  0.00     0.027 C 
ATOM   8524  C39 YOP   108      -6.950  35.509  -3.866  1.00  0.00    -0.031 C 
ATOM   8525  C21 YOP   108     -13.419  37.040  -5.077  1.00  0.00    -0.031 C 
ATOM   8526  C21 YOP   108     -12.864  35.652  -5.051  1.00  0.00     0.027 C 
ATOM   8527  C21 YOP   108     -13.107  34.970  -3.698  1.00  0.00     0.004 C 
ATOM   8528  C21 YOP   108     -14.529  34.407  -3.525  1.00  0.00     0.000 C 
ATOM   8529  C21 YOP   108     -14.713  33.697  -2.180  1.00  0.00     0.000 C 
ATOM   8530  C21 YOP   108     -13.845  32.460  -1.976  1.00  0.00     0.000 C 
ATOM   8531  C21 YOP   108     -13.899  32.033  -0.515  1.00  0.00    -0.000 C 
ATOM   8532  C21 YOP   108     -13.013  30.836  -0.345  1.00  0.00    -0.005 C 
ATOM   8533  C21 YOP   108     -13.314  30.024   0.873  1.00  0.00     0.005 C 
ATOM   8534  C31 YOP   108      -7.695  34.750  -3.044  1.00  0.00    -0.031 C 
ATOM   8535  C31 YOP   108      -8.825  33.796  -3.395  1.00  0.00     0.027 C 
ATOM   8536  C31 YOP   108      -9.261  32.953  -2.191  1.00  0.00     0.004 C 
ATOM   8537  C31 YOP   108      -8.317  31.826  -1.725  1.00  0.00     0.000 C 
ATOM   8538  C31 YOP   108      -8.862  31.166  -0.459  1.00  0.00    -0.000 C 
ATOM   8539  C31 YOP   108      -7.815  30.218   0.143  1.00  0.00    -0.005 C 
ATOM   8540  C31 YOP   108      -8.277  29.331   1.286  1.00  0.00     0.005 C 
ATOM   8541  N   YOP   109       2.287  34.006 -20.858  1.00  0.00    -0.077 N 
ATOM   8542  P   YOP   109       0.641  34.725 -17.039  1.00  0.00     0.408 P 
ATOM   8543  C1  YOP   109      -1.855  35.526 -16.782  1.00  0.00     0.216 C 
ATOM   8544  C2  YOP   109      -3.262  35.217 -16.152  1.00  0.00     0.180 C 
ATOM   8545  C3  YOP   109      -3.942  33.983 -16.820  1.00  0.00     0.213 C 
ATOM   8546  C11 YOP   109       0.081  33.728 -19.365  1.00  0.00     0.209 C 
ATOM   8547  O11 YOP   109      -0.820  34.621 -16.384  1.00  0.00    -0.287 OA
ATOM   8548  C12 YOP   109       1.425  33.173 -19.901  1.00  0.00     0.262 C 
ATOM   8549  O12 YOP   109       0.291  34.906 -18.591  1.00  0.00    -0.288 OA
ATOM   8550  C13 YOP   109       1.554  34.279 -22.136  1.00  0.00     0.271 C 
ATOM   8551  O13 YOP   109       1.364  33.443 -16.889  1.00  0.00    -0.624 OA
ATOM   8552  C14 YOP   109       2.707  35.309 -20.220  1.00  0.00     0.271 C 
ATOM   8553  O14 YOP   109       1.340  35.947 -16.588  1.00  0.00    -0.624 OA
ATOM   8554  C15 YOP   109       3.533  33.237 -21.159  1.00  0.00     0.271 C 
ATOM   8555  C21 YOP   109      -4.293  35.089 -14.026  1.00  0.00     0.259 C 
ATOM   8556  O21 YOP   109      -3.164  35.003 -14.721  1.00  0.00    -0.312 OA
ATOM   8557  C22 YOP   109      -4.031  34.639 -12.584  1.00  0.00     0.111 C 
ATOM   8558  O22 YOP   109      -5.350  35.481 -14.490  1.00  0.00    -0.265 OA
ATOM   8559  C23 YOP   109      -5.309  34.528 -11.786  1.00  0.00     0.010 C 
ATOM   8560  C24 YOP   109      -5.240  34.008 -10.367  1.00  0.00     0.000 C 
ATOM   8561  C25 YOP   109      -6.619  33.483  -9.945  1.00  0.00     0.000 C 
ATOM   8562  C26 YOP   109      -6.627  32.838  -8.563  1.00  0.00     0.000 C 
ATOM   8563  C27 YOP   109      -6.943  31.415  -8.895  1.00  0.00     0.004 C 
ATOM   8564  C28 YOP   109      -6.849  30.490  -7.714  1.00  0.00     0.027 C 
ATOM   8565  C29 YOP   109      -5.461  30.539  -7.157  1.00  0.00    -0.031 C 
ATOM   8566  C31 YOP   109      -3.814  31.958 -15.695  1.00  0.00     0.258 C 
ATOM   8567  O31 YOP   109      -3.231  32.751 -16.583  1.00  0.00    -0.319 OA
ATOM   8568  C32 YOP   109      -2.855  30.927 -15.199  1.00  0.00     0.111 C 
ATOM   8569  O32 YOP   109      -4.983  32.011 -15.351  1.00  0.00    -0.265 OA
ATOM   8570  C33 YOP   109      -3.154  30.589 -13.749  1.00  0.00     0.010 C 
ATOM   8571  C34 YOP   109      -1.947  29.830 -13.225  1.00  0.00     0.000 C 
ATOM   8572  C35 YOP   109      -0.719  30.675 -12.868  1.00  0.00     0.000 C 
ATOM   8573  C36 YOP   109      -0.945  32.008 -12.086  1.00  0.00     0.000 C 
ATOM   8574  C37 YOP   109      -2.083  32.099 -11.069  1.00  0.00     0.004 C 
ATOM   8575  C38 YOP   109      -1.783  33.134  -9.834  1.00  0.00     0.027 C 
ATOM   8576  C39 YOP   109      -2.547  33.342  -8.435  1.00  0.00    -0.031 C 
ATOM   8577  C21 YOP   109      -5.181  30.688  -5.861  1.00  0.00    -0.031 C 
ATOM   8578  C21 YOP   109      -6.166  30.831  -4.761  1.00  0.00     0.027 C 
ATOM   8579  C21 YOP   109      -6.350  32.314  -4.540  1.00  0.00     0.004 C 
ATOM   8580  C21 YOP   109      -5.075  33.170  -4.567  1.00  0.00     0.000 C 
ATOM   8581  C21 YOP   109      -4.287  33.400  -3.275  1.00  0.00     0.000 C 
ATOM   8582  C21 YOP   109      -3.147  34.444  -3.434  1.00  0.00     0.000 C 
ATOM   8583  C21 YOP   109      -2.621  34.994  -2.106  1.00  0.00    -0.000 C 
ATOM   8584  C21 YOP   109      -3.474  36.140  -1.568  1.00  0.00    -0.005 C 
ATOM   8585  C21 YOP   109      -2.831  36.702  -0.310  1.00  0.00     0.005 C 
ATOM   8586  C31 YOP   109      -2.120  33.588  -7.113  1.00  0.00    -0.031 C 
ATOM   8587  C31 YOP   109      -0.707  33.768  -6.490  1.00  0.00     0.027 C 
ATOM   8588  C31 YOP   109       0.294  32.748  -5.845  1.00  0.00     0.004 C 
ATOM   8589  C31 YOP   109       0.095  32.309  -4.308  1.00  0.00     0.000 C 
ATOM   8590  C31 YOP   109      -1.301  31.713  -3.722  1.00  0.00    -0.000 C 
ATOM   8591  C31 YOP   109      -1.612  30.590  -2.641  1.00  0.00    -0.005 C 
ATOM   8592  C31 YOP   109      -2.756  29.507  -2.956  1.00  0.00     0.005 C 
ATOM   8593  N   POP   110     -33.811 -11.008 -19.027  1.00  0.00    -0.063 N 
ATOM   8594  P   POP   110     -29.760 -11.791 -19.433  1.00  0.00     0.408 P 
ATOM   8595  C1  POP   110     -29.301 -10.279 -17.357  1.00  0.00     0.216 C 
ATOM   8596  C2  POP   110     -30.047 -10.716 -16.059  1.00  0.00     0.180 C 
ATOM   8597  C3  POP   110     -31.506 -10.204 -16.108  1.00  0.00     0.213 C 
ATOM   8598  C11 POP   110     -32.088 -12.810 -18.947  1.00  0.00     0.225 C 
ATOM   8599  O11 POP   110     -30.038 -10.506 -18.568  1.00  0.00    -0.287 OA
ATOM   8600  C12 POP   110     -33.565 -12.472 -19.265  1.00  0.00     0.307 C 
ATOM   8601  O12 POP   110     -31.244 -12.101 -19.871  1.00  0.00    -0.287 OA
ATOM   8602  C13 POP   110     -34.468 -13.397 -18.446  1.00  0.00     0.206 C 
ATOM   8603  O13 POP   110     -28.922 -11.408 -20.592  1.00  0.00    -0.624 OA
ATOM   8604  O13 POP   110     -35.159 -12.898 -17.519  1.00  0.00    -0.646 OA
ATOM   8605  O13 POP   110     -34.510 -14.595 -18.811  1.00  0.00    -0.646 OA
ATOM   8606  O14 POP   110     -29.258 -12.883 -18.583  1.00  0.00    -0.624 OA
ATOM   8607  C21 POP   110     -29.080 -12.814 -15.398  1.00  0.00     0.259 C 
ATOM   8608  O21 POP   110     -30.099 -12.136 -15.891  1.00  0.00    -0.312 OA
ATOM   8609  C22 POP   110     -29.414 -14.320 -15.441  1.00  0.00     0.111 C 
ATOM   8610  O22 POP   110     -28.062 -12.344 -14.920  1.00  0.00    -0.265 OA
ATOM   8611  C23 POP   110     -30.917 -14.627 -15.677  1.00  0.00     0.010 C 
ATOM   8612  C24 POP   110     -31.889 -14.398 -14.506  1.00  0.00     0.000 C 
ATOM   8613  C25 POP   110     -31.398 -14.850 -13.129  1.00  0.00     0.000 C 
ATOM   8614  C26 POP   110     -32.466 -14.681 -12.049  1.00  0.00     0.000 C 
ATOM   8615  C27 POP   110     -31.978 -15.237 -10.701  1.00  0.00     0.004 C 
ATOM   8616  C28 POP   110     -33.105 -15.648  -9.781  1.00  0.00     0.027 C 
ATOM   8617  C29 POP   110     -34.201 -14.593  -9.578  1.00  0.00    -0.031 C 
ATOM   8618  C31 POP   110     -32.222  -9.946 -13.906  1.00  0.00     0.258 C 
ATOM   8619  O31 POP   110     -32.293 -10.672 -14.998  1.00  0.00    -0.319 OA
ATOM   8620  C32 POP   110     -33.147 -10.546 -12.848  1.00  0.00     0.111 C 
ATOM   8621  O32 POP   110     -31.571  -8.924 -13.770  1.00  0.00    -0.265 OA
ATOM   8622  C33 POP   110     -33.205  -9.585 -11.642  1.00  0.00     0.010 C 
ATOM   8623  C34 POP   110     -34.227  -9.983 -10.574  1.00  0.00     0.000 C 
ATOM   8624  C35 POP   110     -34.482  -8.947  -9.453  1.00  0.00     0.000 C 
ATOM   8625  C36 POP   110     -33.266  -8.518  -8.597  1.00  0.00     0.000 C 
ATOM   8626  C37 POP   110     -33.560  -7.519  -7.442  1.00  0.00     0.000 C 
ATOM   8627  C38 POP   110     -32.302  -7.190  -6.603  1.00  0.00     0.000 C 
ATOM   8628  C39 POP   110     -32.456  -6.238  -5.388  1.00  0.00     0.000 C 
ATOM   8629  C21 POP   110     -34.205 -13.682  -8.628  1.00  0.00    -0.031 C 
ATOM   8630  C21 POP   110     -33.095 -13.601  -7.640  1.00  0.00     0.027 C 
ATOM   8631  C21 POP   110     -33.652 -13.480  -6.230  1.00  0.00     0.004 C 
ATOM   8632  C21 POP   110     -32.587 -13.218  -5.162  1.00  0.00     0.000 C 
ATOM   8633  C21 POP   110     -33.218 -13.514  -3.804  1.00  0.00     0.000 C 
ATOM   8634  C21 POP   110     -32.341 -13.133  -2.607  1.00  0.00     0.000 C 
ATOM   8635  C21 POP   110     -31.174 -14.112  -2.379  1.00  0.00    -0.000 C 
ATOM   8636  C21 POP   110     -30.192 -13.751  -1.240  1.00  0.00    -0.005 C 
ATOM   8637  C21 POP   110     -29.759 -12.287  -1.090  1.00  0.00     0.005 C 
ATOM   8638  C31 POP   110     -33.348  -6.686  -4.205  1.00  0.00     0.000 C 
ATOM   8639  C31 POP   110     -32.646  -7.542  -3.160  1.00  0.00     0.000 C 
ATOM   8640  C31 POP   110     -33.544  -7.840  -1.950  1.00  0.00     0.000 C 
ATOM   8641  C31 POP   110     -32.777  -8.747  -0.995  1.00  0.00     0.000 C 
ATOM   8642  C31 POP   110     -33.432  -8.879   0.379  1.00  0.00    -0.000 C 
ATOM   8643  C31 POP   110     -32.694  -9.854   1.310  1.00  0.00    -0.005 C 
ATOM   8644  C31 POP   110     -32.863 -11.327   0.918  1.00  0.00     0.005 C 
ATOM   8645  HN1 POP   110     -33.206 -10.451 -19.666  1.00  0.00     0.275 HD
ATOM   8646  HN2 POP   110     -34.813 -10.813 -19.201  1.00  0.00     0.275 HD
ATOM   8647  HN3 POP   110     -33.609 -10.829 -18.024  1.00  0.00     0.275 HD
ATOM   8648  N   POP   111      29.879  13.763 -17.047  1.00  0.00    -0.077 N 
ATOM   8649  P   POP   111      33.077  15.166 -19.689  1.00  0.00     0.408 P 
ATOM   8650  C1  POP   111      33.269  16.685 -17.590  1.00  0.00     0.216 C 
ATOM   8651  C2  POP   111      33.600  16.805 -16.056  1.00  0.00     0.180 C 
ATOM   8652  C3  POP   111      32.803  17.979 -15.395  1.00  0.00     0.213 C 
ATOM   8653  C11 POP   111      31.502  13.186 -18.954  1.00  0.00     0.208 C 
ATOM   8654  O11 POP   111      33.625  15.443 -18.218  1.00  0.00    -0.287 OA
ATOM   8655  C12 POP   111      30.182  12.845 -18.209  1.00  0.00     0.256 C 
ATOM   8656  O12 POP   111      31.610  14.586 -19.290  1.00  0.00    -0.288 OA
ATOM   8657  O13 POP   111      32.942  16.473 -20.369  1.00  0.00    -0.624 OA
ATOM   8658  O14 POP   111      33.907  14.139 -20.343  1.00  0.00    -0.624 OA
ATOM   8659  C21 POP   111      34.109  14.645 -15.264  1.00  0.00     0.259 C 
ATOM   8660  O21 POP   111      33.240  15.625 -15.320  1.00  0.00    -0.312 OA
ATOM   8661  C22 POP   111      33.550  13.533 -14.362  1.00  0.00     0.111 C 
ATOM   8662  O22 POP   111      35.196  14.600 -15.791  1.00  0.00    -0.265 OA
ATOM   8663  C23 POP   111      33.016  12.356 -15.199  1.00  0.00     0.010 C 
ATOM   8664  C24 POP   111      32.035  11.429 -14.458  1.00  0.00     0.000 C 
ATOM   8665  C25 POP   111      32.724  10.474 -13.453  1.00  0.00     0.000 C 
ATOM   8666  C26 POP   111      32.678  10.881 -11.972  1.00  0.00     0.000 C 
ATOM   8667  C27 POP   111      32.888   9.705 -10.994  1.00  0.00     0.004 C 
ATOM   8668  C28 POP   111      33.506  10.161  -9.658  1.00  0.00     0.027 C 
ATOM   8669  C29 POP   111      32.723  11.245  -8.943  1.00  0.00    -0.031 C 
ATOM   8670  C31 POP   111      30.765  17.068 -14.495  1.00  0.00     0.258 C 
ATOM   8671  O31 POP   111      31.363  17.793 -15.451  1.00  0.00    -0.319 OA
ATOM   8672  C32 POP   111      29.255  17.033 -14.813  1.00  0.00     0.111 C 
ATOM   8673  O32 POP   111      31.312  16.481 -13.586  1.00  0.00    -0.265 OA
ATOM   8674  C33 POP   111      28.321  16.676 -13.633  1.00  0.00     0.010 C 
ATOM   8675  C34 POP   111      28.052  15.172 -13.593  1.00  0.00     0.000 C 
ATOM   8676  C35 POP   111      27.025  14.775 -12.550  1.00  0.00     0.000 C 
ATOM   8677  C36 POP   111      27.338  13.398 -11.965  1.00  0.00     0.000 C 
ATOM   8678  C37 POP   111      28.546  13.147 -11.017  1.00  0.00     0.000 C 
ATOM   8679  C38 POP   111      28.621  14.198  -9.911  1.00  0.00     0.000 C 
ATOM   8680  C39 POP   111      29.803  14.091  -8.931  1.00  0.00     0.000 C 
ATOM   8681  C21 POP   111      32.591  11.409  -7.614  1.00  0.00    -0.031 C 
ATOM   8682  C21 POP   111      33.204  10.532  -6.547  1.00  0.00     0.027 C 
ATOM   8683  C21 POP   111      32.286  10.227  -5.342  1.00  0.00     0.004 C 
ATOM   8684  C21 POP   111      32.333  11.373  -4.311  1.00  0.00     0.000 C 
ATOM   8685  C21 POP   111      31.394  11.192  -3.099  1.00  0.00     0.000 C 
ATOM   8686  C21 POP   111      31.337  12.386  -2.114  1.00  0.00     0.000 C 
ATOM   8687  C21 POP   111      30.534  12.138  -0.808  1.00  0.00    -0.000 C 
ATOM   8688  C21 POP   111      29.025  11.841  -0.920  1.00  0.00    -0.005 C 
ATOM   8689  C21 POP   111      28.219  12.812  -1.788  1.00  0.00     0.005 C 
ATOM   8690  C31 POP   111      29.948  15.293  -7.959  1.00  0.00     0.000 C 
ATOM   8691  C31 POP   111      29.045  15.252  -6.706  1.00  0.00     0.000 C 
ATOM   8692  C31 POP   111      29.078  16.519  -5.815  1.00  0.00     0.000 C 
ATOM   8693  C31 POP   111      28.523  16.238  -4.402  1.00  0.00     0.000 C 
ATOM   8694  C31 POP   111      28.642  17.389  -3.383  1.00  0.00    -0.000 C 
ATOM   8695  C31 POP   111      30.047  17.553  -2.783  1.00  0.00    -0.005 C 
ATOM   8696  C31 POP   111      30.090  18.441  -1.539  1.00  0.00     0.005 C 
ATOM   8697  HN1 POP   111      29.858  14.744 -17.404  1.00  0.00     0.274 HD
ATOM   8698  HN2 POP   111      28.962  13.501 -16.621  1.00  0.00     0.274 HD
ATOM   8699  HN3 POP   111      30.628  13.706 -16.328  1.00  0.00     0.274 HD
ATOM   8700  N   YOP   112      -1.737 -34.381 -18.619  1.00  0.00    -0.077 N 
ATOM   8701  P   YOP   112       2.813 -35.610 -18.986  1.00  0.00     0.408 P 
ATOM   8702  C1  YOP   112       1.911 -37.884 -18.118  1.00  0.00     0.216 C 
ATOM   8703  C2  YOP   112       1.678 -38.745 -16.834  1.00  0.00     0.180 C 
ATOM   8704  C3  YOP   112       3.023 -39.452 -16.454  1.00  0.00     0.213 C 
ATOM   8705  C11 YOP   112       0.435 -34.852 -19.844  1.00  0.00     0.208 C 
ATOM   8706  O11 YOP   112       2.348 -36.561 -17.812  1.00  0.00    -0.287 OA
ATOM   8707  C12 YOP   112      -0.520 -35.277 -18.709  1.00  0.00     0.256 C 
ATOM   8708  O12 YOP   112       1.540 -35.753 -19.921  1.00  0.00    -0.288 OA
ATOM   8709  O13 YOP   112       2.853 -34.237 -18.456  1.00  0.00    -0.624 OA
ATOM   8710  O14 YOP   112       3.965 -36.215 -19.696  1.00  0.00    -0.624 OA
ATOM   8711  C21 YOP   112      -0.062 -37.561 -15.728  1.00  0.00     0.259 C 
ATOM   8712  O21 YOP   112       1.183 -37.990 -15.691  1.00  0.00    -0.312 OA
ATOM   8713  C22 YOP   112      -0.478 -36.829 -14.436  1.00  0.00     0.111 C 
ATOM   8714  O22 YOP   112      -0.834 -37.710 -16.662  1.00  0.00    -0.265 OA
ATOM   8715  C23 YOP   112      -1.742 -37.478 -13.810  1.00  0.00     0.010 C 
ATOM   8716  C24 YOP   112      -2.179 -36.845 -12.471  1.00  0.00     0.000 C 
ATOM   8717  C25 YOP   112      -1.534 -37.471 -11.212  1.00  0.00     0.000 C 
ATOM   8718  C26 YOP   112      -0.467 -36.590 -10.534  1.00  0.00     0.000 C 
ATOM   8719  C27 YOP   112      -1.015 -35.305  -9.878  1.00  0.00     0.004 C 
ATOM   8720  C28 YOP   112       0.045 -34.369  -9.246  1.00  0.00     0.027 C 
ATOM   8721  C29 YOP   112       0.828 -35.004  -8.129  1.00  0.00    -0.031 C 
ATOM   8722  C31 YOP   112       3.990 -37.958 -14.985  1.00  0.00     0.258 C 
ATOM   8723  O31 YOP   112       4.065 -38.506 -16.179  1.00  0.00    -0.319 OA
ATOM   8724  C32 YOP   112       4.998 -36.846 -14.907  1.00  0.00     0.111 C 
ATOM   8725  O32 YOP   112       3.283 -38.321 -14.065  1.00  0.00    -0.265 OA
ATOM   8726  C33 YOP   112       6.348 -37.407 -14.419  1.00  0.00     0.010 C 
ATOM   8727  C34 YOP   112       6.408 -37.830 -12.938  1.00  0.00     0.000 C 
ATOM   8728  C35 YOP   112       5.922 -36.735 -11.972  1.00  0.00     0.000 C 
ATOM   8729  C36 YOP   112       6.428 -36.788 -10.522  1.00  0.00     0.000 C 
ATOM   8730  C37 YOP   112       5.823 -37.871  -9.637  1.00  0.00     0.004 C 
ATOM   8731  C38 YOP   112       6.265 -37.663  -8.177  1.00  0.00     0.027 C 
ATOM   8732  C39 YOP   112       5.653 -38.618  -7.199  1.00  0.00    -0.031 C 
ATOM   8733  C21 YOP   112       0.958 -34.524  -6.888  1.00  0.00    -0.031 C 
ATOM   8734  C21 YOP   112       0.361 -33.261  -6.328  1.00  0.00     0.027 C 
ATOM   8735  C21 YOP   112      -0.885 -33.621  -5.499  1.00  0.00     0.004 C 
ATOM   8736  C21 YOP   112      -0.658 -34.753  -4.474  1.00  0.00     0.000 C 
ATOM   8737  C21 YOP   112      -1.747 -34.763  -3.402  1.00  0.00     0.000 C 
ATOM   8738  C21 YOP   112      -1.632 -35.862  -2.346  1.00  0.00     0.000 C 
ATOM   8739  C21 YOP   112      -0.217 -36.076  -1.795  1.00  0.00    -0.000 C 
ATOM   8740  C21 YOP   112      -0.273 -36.966  -0.590  1.00  0.00    -0.005 C 
ATOM   8741  C21 YOP   112       1.142 -37.286  -0.068  1.00  0.00     0.005 C 
ATOM   8742  C31 YOP   112       4.564 -38.409  -6.439  1.00  0.00    -0.031 C 
ATOM   8743  C31 YOP   112       3.719 -37.151  -6.426  1.00  0.00     0.027 C 
ATOM   8744  C31 YOP   112       3.986 -36.163  -5.270  1.00  0.00     0.004 C 
ATOM   8745  C31 YOP   112       3.535 -36.761  -3.928  1.00  0.00     0.000 C 
ATOM   8746  C31 YOP   112       3.925 -35.990  -2.657  1.00  0.00    -0.000 C 
ATOM   8747  C31 YOP   112       5.398 -36.130  -2.225  1.00  0.00    -0.005 C 
ATOM   8748  C31 YOP   112       6.048 -37.517  -2.274  1.00  0.00     0.005 C 
ATOM   8749  HN1 YOP   112      -2.147 -34.364 -17.661  1.00  0.00     0.274 HD
ATOM   8750  HN2 YOP   112      -1.417 -33.416 -18.836  1.00  0.00     0.274 HD
ATOM   8751  HN3 YOP   112      -2.490 -34.625 -19.300  1.00  0.00     0.274 HD
ATOM   8752  N   YOP   113      23.699  23.939 -20.967  1.00  0.00    -0.077 N 
ATOM   8753  P   YOP   113      27.254  25.262 -18.071  1.00  0.00     0.408 P 
ATOM   8754  C1  YOP   113      25.953  26.931 -16.457  1.00  0.00     0.216 C 
ATOM   8755  C2  YOP   113      26.281  27.144 -14.946  1.00  0.00     0.180 C 
ATOM   8756  C3  YOP   113      25.125  26.714 -13.995  1.00  0.00     0.213 C 
ATOM   8757  C11 YOP   113      25.205  25.462 -19.756  1.00  0.00     0.208 C 
ATOM   8758  O11 YOP   113      26.212  25.597 -16.923  1.00  0.00    -0.287 OA
ATOM   8759  C12 YOP   113      25.124  24.124 -20.505  1.00  0.00     0.256 C 
ATOM   8760  O12 YOP   113      26.524  25.804 -19.371  1.00  0.00    -0.288 OA
ATOM   8761  O13 YOP   113      28.518  26.022 -17.899  1.00  0.00    -0.624 OA
ATOM   8762  O14 YOP   113      27.303  23.798 -18.256  1.00  0.00    -0.624 OA
ATOM   8763  C21 YOP   113      28.575  27.033 -14.987  1.00  0.00     0.259 C 
ATOM   8764  O21 YOP   113      27.472  26.425 -14.598  1.00  0.00    -0.312 OA
ATOM   8765  C22 YOP   113      29.747  26.226 -14.470  1.00  0.00     0.111 C 
ATOM   8766  O22 YOP   113      28.663  28.153 -15.461  1.00  0.00    -0.265 OA
ATOM   8767  C23 YOP   113      29.836  26.447 -12.955  1.00  0.00     0.010 C 
ATOM   8768  C24 YOP   113      30.945  25.594 -12.347  1.00  0.00     0.000 C 
ATOM   8769  C25 YOP   113      30.867  25.547 -10.805  1.00  0.00     0.000 C 
ATOM   8770  C26 YOP   113      29.538  25.057 -10.216  1.00  0.00     0.000 C 
ATOM   8771  C27 YOP   113      29.582  24.653  -8.730  1.00  0.00     0.004 C 
ATOM   8772  C28 YOP   113      30.085  25.683  -7.704  1.00  0.00     0.027 C 
ATOM   8773  C29 YOP   113      29.308  26.976  -7.654  1.00  0.00    -0.031 C 
ATOM   8774  C31 YOP   113      24.900  25.659 -11.934  1.00  0.00     0.258 C 
ATOM   8775  O31 YOP   113      25.627  26.473 -12.669  1.00  0.00    -0.319 OA
ATOM   8776  C32 YOP   113      25.573  25.516 -10.582  1.00  0.00     0.111 C 
ATOM   8777  O32 YOP   113      23.857  25.125 -12.257  1.00  0.00    -0.265 OA
ATOM   8778  C33 YOP   113      24.630  24.820  -9.583  1.00  0.00     0.010 C 
ATOM   8779  C34 YOP   113      25.314  24.570  -8.247  1.00  0.00     0.000 C 
ATOM   8780  C35 YOP   113      24.385  23.896  -7.233  1.00  0.00     0.000 C 
ATOM   8781  C36 YOP   113      25.114  23.564  -5.925  1.00  0.00     0.000 C 
ATOM   8782  C37 YOP   113      26.200  22.470  -5.907  1.00  0.00     0.004 C 
ATOM   8783  C38 YOP   113      27.047  22.646  -4.627  1.00  0.00     0.027 C 
ATOM   8784  C39 YOP   113      27.980  21.502  -4.339  1.00  0.00    -0.031 C 
ATOM   8785  C21 YOP   113      29.009  27.641  -6.525  1.00  0.00    -0.031 C 
ATOM   8786  C21 YOP   113      29.400  27.221  -5.128  1.00  0.00     0.027 C 
ATOM   8787  C21 YOP   113      28.326  26.374  -4.434  1.00  0.00     0.004 C 
ATOM   8788  C21 YOP   113      27.138  27.199  -3.923  1.00  0.00     0.000 C 
ATOM   8789  C21 YOP   113      26.162  26.309  -3.155  1.00  0.00     0.000 C 
ATOM   8790  C21 YOP   113      24.806  26.959  -2.864  1.00  0.00     0.000 C 
ATOM   8791  C21 YOP   113      23.917  26.089  -1.999  1.00  0.00    -0.000 C 
ATOM   8792  C21 YOP   113      24.678  25.424  -0.858  1.00  0.00    -0.005 C 
ATOM   8793  C21 YOP   113      23.652  25.275   0.103  1.00  0.00     0.005 C 
ATOM   8794  C31 YOP   113      28.028  20.815  -3.185  1.00  0.00    -0.031 C 
ATOM   8795  C31 YOP   113      27.186  21.022  -1.950  1.00  0.00     0.027 C 
ATOM   8796  C31 YOP   113      26.917  19.840  -0.964  1.00  0.00     0.004 C 
ATOM   8797  C31 YOP   113      25.952  20.202   0.186  1.00  0.00     0.000 C 
ATOM   8798  C31 YOP   113      24.496  20.357  -0.253  1.00  0.00    -0.000 C 
ATOM   8799  C31 YOP   113      23.741  21.381   0.614  1.00  0.00    -0.005 C 
ATOM   8800  C31 YOP   113      23.662  21.021   2.105  1.00  0.00     0.005 C 
ATOM   8801  HN1 YOP   113      23.566  23.062 -21.522  1.00  0.00     0.274 HD
ATOM   8802  HN2 YOP   113      23.081  23.884 -20.130  1.00  0.00     0.274 HD
ATOM   8803  HN3 YOP   113      23.438  24.764 -21.537  1.00  0.00     0.274 HD
ATOM   8804  N   YOP   114      24.078 -25.498 -20.183  1.00  0.00    -0.077 N 
ATOM   8805  P   YOP   114      23.772 -29.492 -17.763  1.00  0.00     0.408 P 
ATOM   8806  C1  YOP   114      24.010 -30.238 -15.223  1.00  0.00     0.216 C 
ATOM   8807  C2  YOP   114      23.538 -28.951 -14.487  1.00  0.00     0.180 C 
ATOM   8808  C3  YOP   114      23.009 -29.195 -13.042  1.00  0.00     0.213 C 
ATOM   8809  C11 YOP   114      25.021 -27.926 -19.413  1.00  0.00     0.209 C 
ATOM   8810  O11 YOP   114      24.596 -29.955 -16.495  1.00  0.00    -0.287 OA
ATOM   8811  C12 YOP   114      25.241 -26.466 -19.907  1.00  0.00     0.262 C 
ATOM   8812  O12 YOP   114      24.381 -28.049 -18.142  1.00  0.00    -0.288 OA
ATOM   8813  C13 YOP   114      23.507 -25.793 -21.537  1.00  0.00     0.271 C 
ATOM   8814  O13 YOP   114      22.339 -29.333 -17.455  1.00  0.00    -0.624 OA
ATOM   8815  C14 YOP   114      23.018 -25.639 -19.144  1.00  0.00     0.271 C 
ATOM   8816  O14 YOP   114      24.113 -30.433 -18.859  1.00  0.00    -0.624 OA
ATOM   8817  C15 YOP   114      24.628 -24.097 -20.124  1.00  0.00     0.271 C 
ATOM   8818  C21 YOP   114      24.436 -26.793 -14.564  1.00  0.00     0.259 C 
ATOM   8819  O21 YOP   114      24.668 -28.077 -14.430  1.00  0.00    -0.312 OA
ATOM   8820  C22 YOP   114      25.779 -26.091 -14.367  1.00  0.00     0.111 C 
ATOM   8821  O22 YOP   114      23.367 -26.244 -14.757  1.00  0.00    -0.265 OA
ATOM   8822  C23 YOP   114      26.312 -26.344 -12.925  1.00  0.00     0.010 C 
ATOM   8823  C24 YOP   114      25.879 -25.327 -11.847  1.00  0.00     0.000 C 
ATOM   8824  C25 YOP   114      26.734 -25.387 -10.565  1.00  0.00     0.000 C 
ATOM   8825  C26 YOP   114      26.682 -26.682  -9.725  1.00  0.00     0.000 C 
ATOM   8826  C27 YOP   114      26.409 -26.471  -8.200  1.00  0.00     0.004 C 
ATOM   8827  C28 YOP   114      26.437 -27.717  -7.286  1.00  0.00     0.027 C 
ATOM   8828  C29 YOP   114      25.643 -28.923  -7.442  1.00  0.00    -0.031 C 
ATOM   8829  C31 YOP   114      22.530 -27.832 -11.172  1.00  0.00     0.258 C 
ATOM   8830  O31 YOP   114      22.531 -27.957 -12.487  1.00  0.00    -0.319 OA
ATOM   8831  C32 YOP   114      21.777 -26.544 -10.826  1.00  0.00     0.111 C 
ATOM   8832  O32 YOP   114      22.961 -28.653 -10.381  1.00  0.00    -0.265 OA
ATOM   8833  C33 YOP   114      22.475 -25.701  -9.739  1.00  0.00     0.010 C 
ATOM   8834  C34 YOP   114      22.516 -26.434  -8.385  1.00  0.00     0.000 C 
ATOM   8835  C35 YOP   114      22.072 -25.595  -7.180  1.00  0.00     0.000 C 
ATOM   8836  C36 YOP   114      22.139 -26.410  -5.872  1.00  0.00     0.000 C 
ATOM   8837  C37 YOP   114      21.678 -25.664  -4.607  1.00  0.00     0.004 C 
ATOM   8838  C38 YOP   114      22.555 -24.476  -4.135  1.00  0.00     0.027 C 
ATOM   8839  C39 YOP   114      23.983 -24.819  -3.773  1.00  0.00    -0.031 C 
ATOM   8840  C21 YOP   114      25.836 -30.134  -6.872  1.00  0.00    -0.031 C 
ATOM   8841  C21 YOP   114      26.885 -30.640  -5.907  1.00  0.00     0.027 C 
ATOM   8842  C21 YOP   114      26.410 -30.521  -4.450  1.00  0.00     0.004 C 
ATOM   8843  C21 YOP   114      26.009 -29.151  -3.897  1.00  0.00     0.000 C 
ATOM   8844  C21 YOP   114      26.020 -29.141  -2.352  1.00  0.00     0.000 C 
ATOM   8845  C21 YOP   114      25.089 -30.116  -1.652  1.00  0.00     0.000 C 
ATOM   8846  C21 YOP   114      23.616 -29.933  -2.015  1.00  0.00    -0.000 C 
ATOM   8847  C21 YOP   114      23.062 -28.489  -1.853  1.00  0.00    -0.005 C 
ATOM   8848  C21 YOP   114      23.000 -27.880  -0.439  1.00  0.00     0.005 C 
ATOM   8849  C31 YOP   114      24.634 -24.581  -2.618  1.00  0.00    -0.031 C 
ATOM   8850  C31 YOP   114      24.117 -23.901  -1.367  1.00  0.00     0.027 C 
ATOM   8851  C31 YOP   114      25.079 -22.785  -0.919  1.00  0.00     0.004 C 
ATOM   8852  C31 YOP   114      26.395 -23.282  -0.296  1.00  0.00     0.000 C 
ATOM   8853  C31 YOP   114      26.334 -23.933   1.095  1.00  0.00    -0.000 C 
ATOM   8854  C31 YOP   114      27.740 -24.430   1.467  1.00  0.00    -0.005 C 
ATOM   8855  C31 YOP   114      27.852 -25.100   2.833  1.00  0.00     0.005 C 
ATOM   8856  P   POP   115     -21.431  30.207 -19.059  1.00  0.00     0.408 P 
ATOM   8857  C1  POP   115     -19.261  31.665 -18.520  1.00  0.00     0.216 C 
ATOM   8858  C2  POP   115     -17.837  31.165 -18.944  1.00  0.00     0.180 C 
ATOM   8859  O2  POP   115     -20.553  29.388 -23.044  1.00  0.00    -0.390 OA
ATOM   8860  C3  POP   115     -16.757  32.290 -18.992  1.00  0.00     0.213 C 
ATOM   8861  O3  POP   115     -22.842  28.025 -24.367  1.00  0.00    -0.390 OA
ATOM   8862  O4  POP   115     -23.954  30.383 -25.496  1.00  0.00    -0.390 OA
ATOM   8863  O5  POP   115     -23.404  32.888 -24.265  1.00  0.00    -0.390 OA
ATOM   8864  O6  POP   115     -22.418  32.918 -21.594  1.00  0.00    -0.390 OA
ATOM   8865  C11 POP   115     -22.135  30.504 -21.607  1.00  0.00     0.197 C 
ATOM   8866  O11 POP   115     -20.136  30.576 -18.225  1.00  0.00    -0.287 OA
ATOM   8867  C12 POP   115     -21.869  29.304 -22.501  1.00  0.00     0.181 C 
ATOM   8868  O12 POP   115     -21.073  30.624 -20.630  1.00  0.00    -0.279 OA
ATOM   8869  C13 POP   115     -22.956  29.201 -23.576  1.00  0.00     0.180 C 
ATOM   8870  O13 POP   115     -21.629  28.747 -19.032  1.00  0.00    -0.624 OA
ATOM   8871  C14 POP   115     -23.012  30.471 -24.418  1.00  0.00     0.180 C 
ATOM   8872  O14 POP   115     -22.571  31.034 -18.617  1.00  0.00    -0.624 OA
ATOM   8873  C15 POP   115     -23.278  31.672 -23.514  1.00  0.00     0.180 C 
ATOM   8874  C16 POP   115     -22.205  31.780 -22.433  1.00  0.00     0.181 C 
ATOM   8875  C21 POP   115     -17.120  28.952 -18.356  1.00  0.00     0.259 C 
ATOM   8876  O21 POP   115     -17.320  30.200 -18.017  1.00  0.00    -0.312 OA
ATOM   8877  C22 POP   115     -16.532  28.256 -17.124  1.00  0.00     0.111 C 
ATOM   8878  O22 POP   115     -17.371  28.420 -19.417  1.00  0.00    -0.265 OA
ATOM   8879  C23 POP   115     -17.557  28.366 -15.989  1.00  0.00     0.010 C 
ATOM   8880  C24 POP   115     -17.216  27.483 -14.814  1.00  0.00     0.000 C 
ATOM   8881  C25 POP   115     -18.019  27.861 -13.566  1.00  0.00     0.000 C 
ATOM   8882  C26 POP   115     -18.023  26.830 -12.428  1.00  0.00     0.000 C 
ATOM   8883  C27 POP   115     -18.031  27.455 -11.030  1.00  0.00     0.004 C 
ATOM   8884  C28 POP   115     -19.086  28.534 -10.781  1.00  0.00     0.027 C 
ATOM   8885  C29 POP   115     -20.431  27.904 -10.594  1.00  0.00    -0.031 C 
ATOM   8886  C31 POP   115     -16.986  33.743 -17.127  1.00  0.00     0.258 C 
ATOM   8887  O31 POP   115     -16.372  32.711 -17.664  1.00  0.00    -0.319 OA
ATOM   8888  C32 POP   115     -16.558  33.818 -15.653  1.00  0.00     0.111 C 
ATOM   8889  O32 POP   115     -17.753  34.494 -17.698  1.00  0.00    -0.265 OA
ATOM   8890  C33 POP   115     -17.456  34.568 -14.630  1.00  0.00     0.010 C 
ATOM   8891  C34 POP   115     -18.961  34.196 -14.577  1.00  0.00     0.000 C 
ATOM   8892  C35 POP   115     -19.354  32.854 -13.902  1.00  0.00     0.000 C 
ATOM   8893  C36 POP   115     -18.786  32.542 -12.513  1.00  0.00     0.000 C 
ATOM   8894  C37 POP   115     -19.376  33.414 -11.411  1.00  0.00     0.000 C 
ATOM   8895  C38 POP   115     -18.755  33.104 -10.049  1.00  0.00     0.000 C 
ATOM   8896  C39 POP   115     -19.156  34.111  -8.975  1.00  0.00     0.000 C 
ATOM   8897  C21 POP   115     -21.581  28.542 -10.433  1.00  0.00    -0.031 C 
ATOM   8898  C21 POP   115     -21.866  30.011 -10.391  1.00  0.00     0.027 C 
ATOM   8899  C21 POP   115     -22.633  30.434  -9.122  1.00  0.00     0.004 C 
ATOM   8900  C21 POP   115     -21.793  30.766  -7.871  1.00  0.00     0.000 C 
ATOM   8901  C21 POP   115     -21.296  29.532  -7.080  1.00  0.00     0.000 C 
ATOM   8902  C21 POP   115     -20.772  29.880  -5.667  1.00  0.00     0.000 C 
ATOM   8903  C21 POP   115     -20.337  28.659  -4.827  1.00  0.00    -0.000 C 
ATOM   8904  C21 POP   115     -19.861  28.961  -3.389  1.00  0.00    -0.005 C 
ATOM   8905  C21 POP   115     -19.548  27.697  -2.583  1.00  0.00     0.005 C 
ATOM   8906  C31 POP   115     -18.679  33.709  -7.588  1.00  0.00     0.000 C 
ATOM   8907  C31 POP   115     -19.309  34.617  -6.556  1.00  0.00     0.000 C 
ATOM   8908  C31 POP   115     -20.705  34.294  -6.066  1.00  0.00     0.000 C 
ATOM   8909  C31 POP   115     -20.819  34.478  -4.582  1.00  0.00     0.000 C 
ATOM   8910  C31 POP   115     -21.077  35.952  -4.278  1.00  0.00    -0.000 C 
ATOM   8911  C31 POP   115     -21.264  35.987  -2.794  1.00  0.00    -0.005 C 
ATOM   8912  C31 POP   115     -22.388  35.497  -1.935  1.00  0.00     0.005 C 
ATOM   8913  HO2 POP   115     -20.015  29.034 -22.320  1.00  0.00     0.210 HD
ATOM   8914  HO3 POP   115     -22.963  27.254 -23.817  1.00  0.00     0.210 HD
ATOM   8915  HO4 POP   115     -24.692  29.836 -25.235  1.00  0.00     0.210 HD
ATOM   8916  HO5 POP   115     -24.347  33.107 -24.285  1.00  0.00     0.210 HD
ATOM   8917  HO6 POP   115     -21.630  33.041 -21.050  1.00  0.00     0.210 HD
ATOM   8918  N   POP   116     -30.522 -23.760 -18.709  1.00  0.00    -0.063 N 
ATOM   8919  P   POP   116     -25.840 -25.585 -18.618  1.00  0.00     0.408 P 
ATOM   8920  C1  POP   116     -26.773 -27.745 -17.393  1.00  0.00     0.216 C 
ATOM   8921  C2  POP   116     -27.016 -28.227 -15.928  1.00  0.00     0.180 C 
ATOM   8922  C3  POP   116     -25.680 -28.177 -15.105  1.00  0.00     0.213 C 
ATOM   8923  C11 POP   116     -28.220 -24.650 -18.686  1.00  0.00     0.225 C 
ATOM   8924  O11 POP   116     -26.396 -26.368 -17.360  1.00  0.00    -0.287 OA
ATOM   8925  C12 POP   116     -29.564 -24.698 -19.426  1.00  0.00     0.307 C 
ATOM   8926  O12 POP   116     -27.189 -25.316 -19.414  1.00  0.00    -0.287 OA
ATOM   8927  C13 POP   116     -30.066 -26.152 -19.660  1.00  0.00     0.206 C 
ATOM   8928  O13 POP   116     -25.347 -24.260 -18.174  1.00  0.00    -0.624 OA
ATOM   8929  O13 POP   116     -31.208 -26.455 -19.233  1.00  0.00    -0.646 OA
ATOM   8930  O13 POP   116     -29.394 -26.942 -20.361  1.00  0.00    -0.646 OA
ATOM   8931  O14 POP   116     -24.931 -26.454 -19.401  1.00  0.00    -0.624 OA
ATOM   8932  C21 POP   116     -28.815 -27.881 -14.400  1.00  0.00     0.259 C 
ATOM   8933  O21 POP   116     -28.015 -27.378 -15.310  1.00  0.00    -0.312 OA
ATOM   8934  C22 POP   116     -29.542 -26.730 -13.702  1.00  0.00     0.111 C 
ATOM   8935  O22 POP   116     -28.938 -29.058 -14.116  1.00  0.00    -0.265 OA
ATOM   8936  C23 POP   116     -30.216 -27.255 -12.430  1.00  0.00     0.010 C 
ATOM   8937  C24 POP   116     -30.854 -26.161 -11.588  1.00  0.00     0.000 C 
ATOM   8938  C25 POP   116     -31.300 -26.758 -10.259  1.00  0.00     0.000 C 
ATOM   8939  C26 POP   116     -31.354 -25.660  -9.197  1.00  0.00     0.000 C 
ATOM   8940  C27 POP   116     -32.001 -26.148  -7.899  1.00  0.00     0.004 C 
ATOM   8941  C28 POP   116     -32.508 -25.039  -6.963  1.00  0.00     0.027 C 
ATOM   8942  C29 POP   116     -31.416 -24.088  -6.517  1.00  0.00    -0.031 C 
ATOM   8943  C31 POP   116     -24.184 -26.558 -14.177  1.00  0.00     0.258 C 
ATOM   8944  O31 POP   116     -25.344 -26.822 -14.743  1.00  0.00    -0.319 OA
ATOM   8945  C32 POP   116     -24.097 -25.045 -13.926  1.00  0.00     0.111 C 
ATOM   8946  O32 POP   116     -23.337 -27.371 -13.850  1.00  0.00    -0.265 OA
ATOM   8947  C33 POP   116     -25.102 -24.547 -12.865  1.00  0.00     0.010 C 
ATOM   8948  C34 POP   116     -24.864 -25.209 -11.500  1.00  0.00     0.000 C 
ATOM   8949  C35 POP   116     -26.083 -25.131 -10.574  1.00  0.00     0.000 C 
ATOM   8950  C36 POP   116     -26.628 -26.512 -10.167  1.00  0.00     0.000 C 
ATOM   8951  C37 POP   116     -25.739 -27.321  -9.206  1.00  0.00     0.000 C 
ATOM   8952  C38 POP   116     -25.300 -26.489  -7.996  1.00  0.00     0.000 C 
ATOM   8953  C39 POP   116     -24.561 -27.291  -6.924  1.00  0.00     0.000 C 
ATOM   8954  C21 POP   116     -30.942 -23.905  -5.271  1.00  0.00    -0.031 C 
ATOM   8955  C21 POP   116     -31.404 -24.629  -4.039  1.00  0.00     0.027 C 
ATOM   8956  C21 POP   116     -30.236 -25.158  -3.187  1.00  0.00     0.004 C 
ATOM   8957  C21 POP   116     -29.606 -24.101  -2.273  1.00  0.00     0.000 C 
ATOM   8958  C21 POP   116     -28.788 -24.766  -1.170  1.00  0.00     0.000 C 
ATOM   8959  C21 POP   116     -28.115 -23.795  -0.223  1.00  0.00     0.000 C 
ATOM   8960  C21 POP   116     -27.250 -24.632   0.739  1.00  0.00    -0.000 C 
ATOM   8961  C21 POP   116     -26.258 -23.880   1.584  1.00  0.00    -0.005 C 
ATOM   8962  C21 POP   116     -26.833 -22.604   1.900  1.00  0.00     0.005 C 
ATOM   8963  C31 POP   116     -24.101 -26.429  -5.735  1.00  0.00     0.000 C 
ATOM   8964  C31 POP   116     -25.236 -25.767  -4.928  1.00  0.00     0.000 C 
ATOM   8965  C31 POP   116     -26.292 -26.712  -4.318  1.00  0.00     0.000 C 
ATOM   8966  C31 POP   116     -25.735 -27.670  -3.244  1.00  0.00     0.000 C 
ATOM   8967  C31 POP   116     -26.719 -28.778  -2.831  1.00  0.00    -0.000 C 
ATOM   8968  C31 POP   116     -27.979 -28.314  -2.081  1.00  0.00    -0.005 C 
ATOM   8969  C31 POP   116     -28.922 -29.478  -1.777  1.00  0.00     0.005 C 
ATOM   8970  HN1 POP   116     -31.297 -23.484 -19.353  1.00  0.00     0.275 HD
ATOM   8971  HN2 POP   116     -30.926 -24.246 -17.888  1.00  0.00     0.275 HD
ATOM   8972  HN3 POP   116     -30.024 -22.905 -18.401  1.00  0.00     0.275 HD
ATOM   8973  P   POP   117      33.002 -20.638 -19.685  1.00  0.00     0.408 P 
ATOM   8974  C1  POP   117      31.606 -22.273 -18.250  1.00  0.00     0.216 C 
ATOM   8975  C2  POP   117      30.143 -22.614 -17.869  1.00  0.00     0.180 C 
ATOM   8976  O2  POP   117      32.995 -19.389 -23.724  1.00  0.00    -0.390 OA
ATOM   8977  C3  POP   117      30.095 -23.957 -17.118  1.00  0.00     0.213 C 
ATOM   8978  O3  POP   117      34.980 -17.338 -24.060  1.00  0.00    -0.390 OA
ATOM   8979  O4  POP   117      37.113 -19.149 -24.917  1.00  0.00    -0.390 OA
ATOM   8980  O5  POP   117      36.829 -21.911 -24.447  1.00  0.00    -0.390 OA
ATOM   8981  O6  POP   117      35.278 -22.675 -22.217  1.00  0.00    -0.390 OA
ATOM   8982  C11 POP   117      34.365 -20.424 -21.993  1.00  0.00     0.197 C 
ATOM   8983  O11 POP   117      31.646 -21.403 -19.376  1.00  0.00    -0.287 OA
ATOM   8984  C12 POP   117      34.031 -19.157 -22.774  1.00  0.00     0.181 C 
ATOM   8985  O12 POP   117      33.179 -20.884 -21.316  1.00  0.00    -0.279 OA
ATOM   8986  C13 POP   117      35.270 -18.607 -23.443  1.00  0.00     0.180 C 
ATOM   8987  O13 POP   117      32.773 -19.195 -19.459  1.00  0.00    -0.624 OA
ATOM   8988  C14 POP   117      35.893 -19.649 -24.372  1.00  0.00     0.180 C 
ATOM   8989  O14 POP   117      34.110 -21.249 -18.936  1.00  0.00    -0.624 OA
ATOM   8990  C15 POP   117      36.207 -20.927 -23.596  1.00  0.00     0.180 C 
ATOM   8991  C16 POP   117      34.959 -21.475 -22.916  1.00  0.00     0.181 C 
ATOM   8992  C21 POP   117      29.396 -20.418 -17.512  1.00  0.00     0.259 C 
ATOM   8993  O21 POP   117      29.598 -21.613 -17.000  1.00  0.00    -0.312 OA
ATOM   8994  C22 POP   117      29.207 -19.453 -16.326  1.00  0.00     0.111 C 
ATOM   8995  O22 POP   117      29.252 -20.147 -18.694  1.00  0.00    -0.265 OA
ATOM   8996  C23 POP   117      27.862 -19.754 -15.602  1.00  0.00     0.010 C 
ATOM   8997  C24 POP   117      27.346 -18.712 -14.585  1.00  0.00     0.000 C 
ATOM   8998  C25 POP   117      27.716 -19.004 -13.118  1.00  0.00     0.000 C 
ATOM   8999  C26 POP   117      29.212 -18.802 -12.946  1.00  0.00     0.000 C 
ATOM   9000  C27 POP   117      29.739 -18.647 -11.521  1.00  0.00     0.004 C 
ATOM   9001  C28 POP   117      31.273 -18.619 -11.583  1.00  0.00     0.027 C 
ATOM   9002  C29 POP   117      31.915 -19.978 -11.676  1.00  0.00    -0.031 C 
ATOM   9003  C31 POP   117      30.900 -24.932 -15.212  1.00  0.00     0.258 C 
ATOM   9004  O31 POP   117      30.652 -23.781 -15.801  1.00  0.00    -0.319 OA
ATOM   9005  C32 POP   117      31.840 -24.694 -14.025  1.00  0.00     0.111 C 
ATOM   9006  O32 POP   117      30.500 -26.017 -15.594  1.00  0.00    -0.265 OA
ATOM   9007  C33 POP   117      31.080 -24.661 -12.677  1.00  0.00     0.010 C 
ATOM   9008  C34 POP   117      31.817 -25.261 -11.485  1.00  0.00     0.000 C 
ATOM   9009  C35 POP   117      31.451 -24.692 -10.122  1.00  0.00     0.000 C 
ATOM   9010  C36 POP   117      29.990 -24.934  -9.774  1.00  0.00     0.000 C 
ATOM   9011  C37 POP   117      29.607 -24.447  -8.360  1.00  0.00     0.000 C 
ATOM   9012  C38 POP   117      30.442 -25.048  -7.222  1.00  0.00     0.000 C 
ATOM   9013  C39 POP   117      30.278 -24.536  -5.792  1.00  0.00     0.000 C 
ATOM   9014  C21 POP   117      32.501 -20.707 -10.707  1.00  0.00    -0.031 C 
ATOM   9015  C21 POP   117      32.680 -20.366  -9.245  1.00  0.00     0.027 C 
ATOM   9016  C21 POP   117      31.730 -21.181  -8.352  1.00  0.00     0.004 C 
ATOM   9017  C21 POP   117      31.824 -20.800  -6.861  1.00  0.00     0.000 C 
ATOM   9018  C21 POP   117      33.184 -21.122  -6.194  1.00  0.00     0.000 C 
ATOM   9019  C21 POP   117      33.362 -20.573  -4.764  1.00  0.00     0.000 C 
ATOM   9020  C21 POP   117      34.738 -20.865  -4.138  1.00  0.00    -0.000 C 
ATOM   9021  C21 POP   117      35.133 -19.906  -2.990  1.00  0.00    -0.005 C 
ATOM   9022  C21 POP   117      34.024 -19.337  -2.085  1.00  0.00     0.005 C 
ATOM   9023  C31 POP   117      31.198 -25.137  -4.708  1.00  0.00     0.000 C 
ATOM   9024  C31 POP   117      31.053 -24.375  -3.373  1.00  0.00     0.000 C 
ATOM   9025  C31 POP   117      32.052 -24.629  -2.229  1.00  0.00     0.000 C 
ATOM   9026  C31 POP   117      32.307 -26.069  -1.843  1.00  0.00     0.000 C 
ATOM   9027  C31 POP   117      33.301 -26.278  -0.742  1.00  0.00    -0.000 C 
ATOM   9028  C31 POP   117      33.174 -25.428   0.478  1.00  0.00    -0.005 C 
ATOM   9029  C31 POP   117      34.602 -25.454   0.990  1.00  0.00     0.005 C 
ATOM   9030  HO2 POP   117      32.206 -19.505 -23.177  1.00  0.00     0.210 HD
ATOM   9031  HO3 POP   117      34.124 -17.384 -24.503  1.00  0.00     0.210 HD
ATOM   9032  HO4 POP   117      37.711 -19.894 -24.964  1.00  0.00     0.210 HD
ATOM   9033  HO5 POP   117      37.728 -21.645 -24.626  1.00  0.00     0.210 HD
ATOM   9034  HO6 POP   117      34.684 -23.390 -22.441  1.00  0.00     0.210 HD
ATOM   9035  P   POP   118      13.279  38.256 -19.754  1.00  0.00     0.408 P 
ATOM   9036  C1  POP   118      11.760  36.268 -18.913  1.00  0.00     0.216 C 
ATOM   9037  C2  POP   118      11.187  35.751 -17.569  1.00  0.00     0.180 C 
ATOM   9038  O2  POP   118      12.016  36.880 -23.733  1.00  0.00    -0.390 OA
ATOM   9039  C3  POP   118      12.281  35.065 -16.688  1.00  0.00     0.213 C 
ATOM   9040  O3  POP   118      11.759  39.411 -25.237  1.00  0.00    -0.390 OA
ATOM   9041  O4  POP   118      14.590  39.442 -26.128  1.00  0.00    -0.390 OA
ATOM   9042  O5  POP   118      16.454  37.897 -24.749  1.00  0.00    -0.390 OA
ATOM   9043  O6  POP   118      15.861  37.203 -22.063  1.00  0.00    -0.390 OA
ATOM   9044  C11 POP   118      13.619  38.017 -22.327  1.00  0.00     0.197 C 
ATOM   9045  O11 POP   118      12.733  37.272 -18.661  1.00  0.00    -0.287 OA
ATOM   9046  C12 POP   118      12.457  38.163 -23.287  1.00  0.00     0.181 C 
ATOM   9047  O12 POP   118      13.181  37.339 -21.140  1.00  0.00    -0.279 OA
ATOM   9048  C13 POP   118      12.887  39.093 -24.417  1.00  0.00     0.180 C 
ATOM   9049  O13 POP   118      12.319  39.369 -19.908  1.00  0.00    -0.624 OA
ATOM   9050  C14 POP   118      14.099  38.506 -25.156  1.00  0.00     0.180 C 
ATOM   9051  O14 POP   118      14.683  38.601 -19.477  1.00  0.00    -0.624 OA
ATOM   9052  C15 POP   118      15.218  38.254 -24.153  1.00  0.00     0.180 C 
ATOM   9053  C16 POP   118      14.805  37.354 -22.995  1.00  0.00     0.181 C 
ATOM   9054  C21 POP   118       9.585  36.701 -16.106  1.00  0.00     0.259 C 
ATOM   9055  O21 POP   118      10.618  36.887 -16.900  1.00  0.00    -0.312 OA
ATOM   9056  C22 POP   118       9.013  38.091 -15.824  1.00  0.00     0.111 C 
ATOM   9057  O22 POP   118       9.092  35.632 -15.797  1.00  0.00    -0.265 OA
ATOM   9058  C23 POP   118       8.391  38.256 -14.423  1.00  0.00     0.010 C 
ATOM   9059  C24 POP   118       9.443  38.002 -13.334  1.00  0.00     0.000 C 
ATOM   9060  C25 POP   118       8.957  38.276 -11.896  1.00  0.00     0.000 C 
ATOM   9061  C26 POP   118       9.955  37.765 -10.838  1.00  0.00     0.000 C 
ATOM   9062  C27 POP   118       9.399  37.659  -9.404  1.00  0.00     0.004 C 
ATOM   9063  C28 POP   118      10.468  37.367  -8.321  1.00  0.00     0.027 C 
ATOM   9064  C29 POP   118      11.166  36.037  -8.402  1.00  0.00    -0.031 C 
ATOM   9065  C31 POP   118      13.317  36.687 -15.400  1.00  0.00     0.258 C 
ATOM   9066  O31 POP   118      13.423  35.912 -16.468  1.00  0.00    -0.319 OA
ATOM   9067  C32 POP   118      14.550  37.568 -15.312  1.00  0.00     0.111 C 
ATOM   9068  O32 POP   118      12.429  36.631 -14.567  1.00  0.00    -0.265 OA
ATOM   9069  C33 POP   118      14.576  38.342 -13.971  1.00  0.00     0.010 C 
ATOM   9070  C34 POP   118      13.652  39.576 -13.933  1.00  0.00     0.000 C 
ATOM   9071  C35 POP   118      13.486  40.212 -12.529  1.00  0.00     0.000 C 
ATOM   9072  C36 POP   118      12.633  41.499 -12.522  1.00  0.00     0.000 C 
ATOM   9073  C37 POP   118      12.805  42.388 -11.279  1.00  0.00     0.000 C 
ATOM   9074  C38 POP   118      12.132  41.852 -10.016  1.00  0.00     0.000 C 
ATOM   9075  C39 POP   118      12.234  42.845  -8.877  1.00  0.00     0.000 C 
ATOM   9076  C21 POP   118      12.431  35.838  -8.829  1.00  0.00    -0.031 C 
ATOM   9077  C21 POP   118      13.392  36.903  -9.317  1.00  0.00     0.027 C 
ATOM   9078  C21 POP   118      14.557  37.264  -8.362  1.00  0.00     0.004 C 
ATOM   9079  C21 POP   118      14.069  37.844  -7.015  1.00  0.00     0.000 C 
ATOM   9080  C21 POP   118      15.129  37.874  -5.888  1.00  0.00     0.000 C 
ATOM   9081  C21 POP   118      14.841  38.751  -4.645  1.00  0.00     0.000 C 
ATOM   9082  C21 POP   118      13.527  38.502  -3.876  1.00  0.00    -0.000 C 
ATOM   9083  C21 POP   118      13.335  37.080  -3.327  1.00  0.00    -0.005 C 
ATOM   9084  C21 POP   118      14.286  36.724  -2.183  1.00  0.00     0.005 C 
ATOM   9085  C31 POP   118      11.793  42.220  -7.565  1.00  0.00     0.000 C 
ATOM   9086  C31 POP   118      11.908  43.153  -6.403  1.00  0.00     0.000 C 
ATOM   9087  C31 POP   118      10.759  42.793  -5.531  1.00  0.00     0.000 C 
ATOM   9088  C31 POP   118      10.540  41.504  -4.825  1.00  0.00     0.000 C 
ATOM   9089  C31 POP   118       9.978  41.774  -3.431  1.00  0.00    -0.000 C 
ATOM   9090  C31 POP   118       9.920  40.537  -2.608  1.00  0.00    -0.005 C 
ATOM   9091  C31 POP   118       9.527  39.249  -3.357  1.00  0.00     0.005 C 
ATOM   9092  HO2 POP   118      12.749  36.268 -23.606  1.00  0.00     0.210 HD
ATOM   9093  HO3 POP   118      11.643  40.367 -25.152  1.00  0.00     0.210 HD
ATOM   9094  HO4 POP   118      14.733  38.949 -26.939  1.00  0.00     0.210 HD
ATOM   9095  HO5 POP   118      17.131  38.534 -24.483  1.00  0.00     0.210 HD
ATOM   9096  HO6 POP   118      16.101  36.272 -21.963  1.00  0.00     0.210 HD
ATOM   9097  P   POP   119      -7.515 -38.305 -19.635  1.00  0.00     0.408 P 
ATOM   9098  C1  POP   119      -9.695 -39.142 -18.509  1.00  0.00     0.216 C 
ATOM   9099  C2  POP   119     -10.357 -37.945 -17.771  1.00  0.00     0.180 C 
ATOM   9100  O2  POP   119      -8.720 -37.808 -23.114  1.00  0.00    -0.390 OA
ATOM   9101  C3  POP   119     -11.813 -38.286 -17.399  1.00  0.00     0.213 C 
ATOM   9102  O3  POP   119      -6.440 -36.643 -24.587  1.00  0.00    -0.390 OA
ATOM   9103  O4  POP   119      -5.951 -38.985 -26.079  1.00  0.00    -0.390 OA
ATOM   9104  O5  POP   119      -6.799 -41.430 -25.137  1.00  0.00    -0.390 OA
ATOM   9105  O6  POP   119      -7.186 -41.678 -22.250  1.00  0.00    -0.390 OA
ATOM   9106  C11 POP   119      -7.072 -39.274 -22.044  1.00  0.00     0.197 C 
ATOM   9107  O11 POP   119      -8.290 -39.008 -18.474  1.00  0.00    -0.287 OA
ATOM   9108  C12 POP   119      -7.342 -37.956 -22.764  1.00  0.00     0.181 C 
ATOM   9109  O12 POP   119      -7.762 -39.434 -20.799  1.00  0.00    -0.279 OA
ATOM   9110  C13 POP   119      -6.456 -37.921 -23.973  1.00  0.00     0.180 C 
ATOM   9111  O13 POP   119      -8.197 -37.049 -20.010  1.00  0.00    -0.624 OA
ATOM   9112  C14 POP   119      -6.792 -39.041 -24.925  1.00  0.00     0.180 C 
ATOM   9113  O14 POP   119      -6.073 -38.252 -19.329  1.00  0.00    -0.624 OA
ATOM   9114  C15 POP   119      -6.582 -40.359 -24.208  1.00  0.00     0.180 C 
ATOM   9115  C16 POP   119      -7.414 -40.454 -22.933  1.00  0.00     0.181 C 
ATOM   9116  C21 POP   119      -9.606 -36.356 -16.277  1.00  0.00     0.259 C 
ATOM   9117  O21 POP   119      -9.603 -37.651 -16.573  1.00  0.00    -0.312 OA
ATOM   9118  C22 POP   119      -8.661 -36.068 -15.108  1.00  0.00     0.111 C 
ATOM   9119  O22 POP   119     -10.270 -35.510 -16.852  1.00  0.00    -0.265 OA
ATOM   9120  C23 POP   119      -9.191 -34.949 -14.178  1.00  0.00     0.010 C 
ATOM   9121  C24 POP   119     -10.396 -35.382 -13.327  1.00  0.00     0.000 C 
ATOM   9122  C25 POP   119     -10.065 -36.532 -12.361  1.00  0.00     0.000 C 
ATOM   9123  C26 POP   119     -11.088 -36.744 -11.228  1.00  0.00     0.000 C 
ATOM   9124  C27 POP   119     -10.896 -35.637 -10.177  1.00  0.00     0.004 C 
ATOM   9125  C28 POP   119     -11.369 -35.961  -8.749  1.00  0.00     0.027 C 
ATOM   9126  C29 POP   119     -10.496 -37.001  -8.092  1.00  0.00    -0.031 C 
ATOM   9127  C31 POP   119     -11.613 -39.760 -15.546  1.00  0.00     0.258 C 
ATOM   9128  O31 POP   119     -11.805 -39.616 -16.845  1.00  0.00    -0.319 OA
ATOM   9129  C32 POP   119     -11.407 -41.245 -15.250  1.00  0.00     0.111 C 
ATOM   9130  O32 POP   119     -11.579 -38.864 -14.723  1.00  0.00    -0.265 OA
ATOM   9131  C33 POP   119     -10.909 -41.358 -13.799  1.00  0.00     0.010 C 
ATOM   9132  C34 POP   119     -10.842 -42.765 -13.220  1.00  0.00     0.000 C 
ATOM   9133  C35 POP   119     -10.560 -42.776 -11.703  1.00  0.00     0.000 C 
ATOM   9134  C36 POP   119      -9.154 -42.413 -11.211  1.00  0.00     0.000 C 
ATOM   9135  C37 POP   119      -9.132 -42.472  -9.673  1.00  0.00     0.000 C 
ATOM   9136  C38 POP   119      -7.819 -41.968  -9.089  1.00  0.00     0.000 C 
ATOM   9137  C39 POP   119      -7.751 -40.440  -9.012  1.00  0.00     0.000 C 
ATOM   9138  C21 POP   119     -10.844 -38.213  -7.648  1.00  0.00    -0.031 C 
ATOM   9139  C21 POP   119     -12.201 -38.849  -7.685  1.00  0.00     0.027 C 
ATOM   9140  C21 POP   119     -12.494 -39.639  -6.400  1.00  0.00     0.004 C 
ATOM   9141  C21 POP   119     -11.449 -40.652  -5.922  1.00  0.00     0.000 C 
ATOM   9142  C21 POP   119     -10.598 -40.096  -4.783  1.00  0.00     0.000 C 
ATOM   9143  C21 POP   119      -9.968 -41.196  -3.971  1.00  0.00     0.000 C 
ATOM   9144  C21 POP   119      -9.134 -42.017  -4.892  1.00  0.00    -0.000 C 
ATOM   9145  C21 POP   119      -8.216 -42.835  -4.102  1.00  0.00    -0.005 C 
ATOM   9146  C21 POP   119      -8.874 -43.960  -3.315  1.00  0.00     0.005 C 
ATOM   9147  C31 POP   119      -6.436 -39.975  -8.370  1.00  0.00     0.000 C 
ATOM   9148  C31 POP   119      -6.406 -40.090  -6.831  1.00  0.00     0.000 C 
ATOM   9149  C31 POP   119      -5.069 -39.615  -6.237  1.00  0.00     0.000 C 
ATOM   9150  C31 POP   119      -4.845 -39.940  -4.750  1.00  0.00     0.000 C 
ATOM   9151  C31 POP   119      -5.998 -39.572  -3.796  1.00  0.00    -0.000 C 
ATOM   9152  C31 POP   119      -5.638 -39.598  -2.295  1.00  0.00    -0.005 C 
ATOM   9153  C31 POP   119      -4.887 -38.363  -1.766  1.00  0.00     0.005 C 
ATOM   9154  HO2 POP   119      -9.011 -38.687 -23.365  1.00  0.00     0.210 HD
ATOM   9155  HO3 POP   119      -5.609 -36.598 -25.061  1.00  0.00     0.210 HD
ATOM   9156  HO4 POP   119      -6.216 -39.740 -26.609  1.00  0.00     0.210 HD
ATOM   9157  HO5 POP   119      -5.938 -41.809 -25.338  1.00  0.00     0.210 HD
ATOM   9158  HO6 POP   119      -7.696 -41.609 -21.432  1.00  0.00     0.210 HD
ATOM   9159  N   POP   120     -41.222   7.880 -16.830  1.00  0.00    -0.077 N 
ATOM   9160  P   POP   120     -38.073   7.518 -19.625  1.00  0.00     0.408 P 
ATOM   9161  C1  POP   120     -36.512   9.223 -18.326  1.00  0.00     0.216 C 
ATOM   9162  C2  POP   120     -36.873   9.520 -16.848  1.00  0.00     0.180 C 
ATOM   9163  C3  POP   120     -37.688  10.829 -16.674  1.00  0.00     0.213 C 
ATOM   9164  C11 POP   120     -40.524   8.311 -19.188  1.00  0.00     0.208 C 
ATOM   9165  O11 POP   120     -37.683   8.945 -19.086  1.00  0.00    -0.287 OA
ATOM   9166  C12 POP   120     -41.702   8.002 -18.252  1.00  0.00     0.256 C 
ATOM   9167  O12 POP   120     -39.480   7.399 -18.898  1.00  0.00    -0.288 OA
ATOM   9168  O13 POP   120     -38.318   7.617 -21.081  1.00  0.00    -0.624 OA
ATOM   9169  O14 POP   120     -37.252   6.439 -19.046  1.00  0.00    -0.624 OA
ATOM   9170  C21 POP   120     -36.951   7.362 -16.039  1.00  0.00     0.259 C 
ATOM   9171  O21 POP   120     -37.667   8.447 -16.328  1.00  0.00    -0.312 OA
ATOM   9172  C22 POP   120     -37.943   6.276 -15.662  1.00  0.00     0.111 C 
ATOM   9173  O22 POP   120     -35.742   7.311 -15.939  1.00  0.00    -0.265 OA
ATOM   9174  C23 POP   120     -38.743   6.789 -14.459  1.00  0.00     0.010 C 
ATOM   9175  C24 POP   120     -39.843   5.833 -14.033  1.00  0.00     0.000 C 
ATOM   9176  C25 POP   120     -40.499   6.323 -12.746  1.00  0.00     0.000 C 
ATOM   9177  C26 POP   120     -41.668   5.439 -12.315  1.00  0.00     0.000 C 
ATOM   9178  C27 POP   120     -42.727   6.198 -11.503  1.00  0.00     0.004 C 
ATOM   9179  C28 POP   120     -42.222   6.711 -10.138  1.00  0.00     0.027 C 
ATOM   9180  C29 POP   120     -42.198   5.598  -9.114  1.00  0.00    -0.031 C 
ATOM   9181  C31 POP   120     -39.231  10.909 -14.862  1.00  0.00     0.258 C 
ATOM   9182  O31 POP   120     -37.974  11.081 -15.273  1.00  0.00    -0.319 OA
ATOM   9183  C32 POP   120     -39.283  11.044 -13.328  1.00  0.00     0.111 C 
ATOM   9184  O32 POP   120     -40.168  10.579 -15.578  1.00  0.00    -0.265 OA
ATOM   9185  C33 POP   120     -40.670  10.725 -12.713  1.00  0.00     0.010 C 
ATOM   9186  C34 POP   120     -40.651  10.698 -11.177  1.00  0.00     0.000 C 
ATOM   9187  C35 POP   120     -42.037  10.463 -10.562  1.00  0.00     0.000 C 
ATOM   9188  C36 POP   120     -41.995  10.232  -9.034  1.00  0.00     0.000 C 
ATOM   9189  C37 POP   120     -43.370  10.449  -8.378  1.00  0.00     0.000 C 
ATOM   9190  C38 POP   120     -43.397  10.651  -6.847  1.00  0.00     0.000 C 
ATOM   9191  C39 POP   120     -42.645   9.608  -5.995  1.00  0.00     0.000 C 
ATOM   9192  C21 POP   120     -41.202   5.085  -8.372  1.00  0.00    -0.031 C 
ATOM   9193  C21 POP   120     -39.754   5.473  -8.328  1.00  0.00     0.027 C 
ATOM   9194  C21 POP   120     -39.487   6.407  -7.142  1.00  0.00     0.004 C 
ATOM   9195  C21 POP   120     -39.382   5.724  -5.776  1.00  0.00     0.000 C 
ATOM   9196  C21 POP   120     -38.787   6.679  -4.746  1.00  0.00     0.000 C 
ATOM   9197  C21 POP   120     -39.577   7.970  -4.530  1.00  0.00     0.000 C 
ATOM   9198  C21 POP   120     -39.077   8.637  -3.247  1.00  0.00    -0.000 C 
ATOM   9199  C21 POP   120     -39.639  10.040  -2.987  1.00  0.00    -0.005 C 
ATOM   9200  C21 POP   120     -39.243  10.630  -1.627  1.00  0.00     0.005 C 
ATOM   9201  C31 POP   120     -43.177   8.173  -6.180  1.00  0.00     0.000 C 
ATOM   9202  C31 POP   120     -44.549   7.930  -5.510  1.00  0.00     0.000 C 
ATOM   9203  C31 POP   120     -44.512   7.252  -4.120  1.00  0.00     0.000 C 
ATOM   9204  C31 POP   120     -43.597   7.937  -3.085  1.00  0.00     0.000 C 
ATOM   9205  C31 POP   120     -43.498   7.154  -1.768  1.00  0.00    -0.000 C 
ATOM   9206  C31 POP   120     -44.344   7.710  -0.622  1.00  0.00    -0.005 C 
ATOM   9207  C31 POP   120     -43.687   8.881   0.119  1.00  0.00     0.005 C 
ATOM   9208  HN1 POP   120     -40.633   7.017 -16.832  1.00  0.00     0.274 HD
ATOM   9209  HN2 POP   120     -40.586   8.674 -16.587  1.00  0.00     0.274 HD
ATOM   9210  HN3 POP   120     -41.994   7.792 -16.138  1.00  0.00     0.274 HD
ATOM   9211  N   YOP   121     -37.173  17.876 -17.808  1.00  0.00    -0.077 N 
ATOM   9212  P   YOP   121     -34.934  21.266 -19.448  1.00  0.00     0.408 P 
ATOM   9213  C1  YOP   121     -35.672  21.331 -17.008  1.00  0.00     0.216 C 
ATOM   9214  C2  YOP   121     -35.246  21.608 -15.557  1.00  0.00     0.180 C 
ATOM   9215  C3  YOP   121     -36.505  21.677 -14.653  1.00  0.00     0.213 C 
ATOM   9216  C11 YOP   121     -35.293  18.621 -19.370  1.00  0.00     0.208 C 
ATOM   9217  O11 YOP   121     -34.566  21.400 -17.916  1.00  0.00    -0.287 OA
ATOM   9218  C12 YOP   121     -35.713  17.733 -18.168  1.00  0.00     0.256 C 
ATOM   9219  O12 YOP   121     -35.849  19.937 -19.317  1.00  0.00    -0.288 OA
ATOM   9220  O13 YOP   121     -35.790  22.391 -19.847  1.00  0.00    -0.624 OA
ATOM   9221  O14 YOP   121     -33.731  20.982 -20.253  1.00  0.00    -0.624 OA
ATOM   9222  C21 YOP   121     -33.146  20.626 -15.344  1.00  0.00     0.259 C 
ATOM   9223  O21 YOP   121     -34.438  20.506 -15.114  1.00  0.00    -0.312 OA
ATOM   9224  C22 YOP   121     -32.465  19.381 -14.769  1.00  0.00     0.111 C 
ATOM   9225  O22 YOP   121     -32.579  21.567 -15.861  1.00  0.00    -0.265 OA
ATOM   9226  C23 YOP   121     -32.019  19.588 -13.295  1.00  0.00     0.010 C 
ATOM   9227  C24 YOP   121     -33.160  19.568 -12.259  1.00  0.00     0.000 C 
ATOM   9228  C25 YOP   121     -32.727  20.085 -10.865  1.00  0.00     0.000 C 
ATOM   9229  C26 YOP   121     -32.387  18.924  -9.917  1.00  0.00     0.000 C 
ATOM   9230  C27 YOP   121     -32.357  19.249  -8.403  1.00  0.00     0.004 C 
ATOM   9231  C28 YOP   121     -33.703  19.754  -7.818  1.00  0.00     0.027 C 
ATOM   9232  C29 YOP   121     -34.763  18.685  -7.763  1.00  0.00    -0.031 C 
ATOM   9233  C31 YOP   121     -37.128  21.423 -12.431  1.00  0.00     0.258 C 
ATOM   9234  O31 YOP   121     -36.120  21.537 -13.268  1.00  0.00    -0.319 OA
ATOM   9235  C32 YOP   121     -36.633  21.624 -11.013  1.00  0.00     0.111 C 
ATOM   9236  O32 YOP   121     -38.298  21.312 -12.751  1.00  0.00    -0.265 OA
ATOM   9237  C33 YOP   121     -37.864  22.016 -10.177  1.00  0.00     0.010 C 
ATOM   9238  C34 YOP   121     -37.577  22.330  -8.710  1.00  0.00     0.000 C 
ATOM   9239  C35 YOP   121     -36.812  23.638  -8.497  1.00  0.00     0.000 C 
ATOM   9240  C36 YOP   121     -36.406  23.893  -7.047  1.00  0.00     0.000 C 
ATOM   9241  C37 YOP   121     -35.706  25.253  -6.930  1.00  0.00     0.004 C 
ATOM   9242  C38 YOP   121     -34.848  25.403  -5.671  1.00  0.00     0.027 C 
ATOM   9243  C39 YOP   121     -33.441  24.858  -5.803  1.00  0.00    -0.031 C 
ATOM   9244  C21 YOP   121     -35.880  18.686  -7.009  1.00  0.00    -0.031 C 
ATOM   9245  C21 YOP   121     -36.334  19.765  -6.041  1.00  0.00     0.027 C 
ATOM   9246  C21 YOP   121     -35.864  19.545  -4.589  1.00  0.00     0.004 C 
ATOM   9247  C21 YOP   121     -36.485  20.524  -3.579  1.00  0.00     0.000 C 
ATOM   9248  C21 YOP   121     -38.009  20.337  -3.387  1.00  0.00     0.000 C 
ATOM   9249  C21 YOP   121     -38.529  18.885  -3.174  1.00  0.00     0.000 C 
ATOM   9250  C21 YOP   121     -37.846  18.100  -2.115  1.00  0.00    -0.000 C 
ATOM   9251  C21 YOP   121     -38.114  18.897  -0.939  1.00  0.00    -0.005 C 
ATOM   9252  C21 YOP   121     -37.753  17.931   0.080  1.00  0.00     0.005 C 
ATOM   9253  C31 YOP   121     -32.925  23.834  -5.099  1.00  0.00    -0.031 C 
ATOM   9254  C31 YOP   121     -33.662  23.046  -4.058  1.00  0.00     0.027 C 
ATOM   9255  C31 YOP   121     -33.675  23.750  -2.686  1.00  0.00     0.004 C 
ATOM   9256  C31 YOP   121     -34.329  22.895  -1.586  1.00  0.00     0.000 C 
ATOM   9257  C31 YOP   121     -34.342  23.548  -0.186  1.00  0.00    -0.000 C 
ATOM   9258  C31 YOP   121     -35.044  24.908  -0.156  1.00  0.00    -0.005 C 
ATOM   9259  C31 YOP   121     -36.559  24.776  -0.319  1.00  0.00     0.005 C 
ATOM   9260  HN1 YOP   121     -37.334  18.875 -17.554  1.00  0.00     0.274 HD
ATOM   9261  HN2 YOP   121     -37.788  17.645 -18.618  1.00  0.00     0.274 HD
ATOM   9262  HN3 YOP   121     -37.421  17.251 -17.009  1.00  0.00     0.274 HD
ATOM   9263  N   POP   122      39.908  -3.234 -20.794  1.00  0.00    -0.063 N 
ATOM   9264  P   POP   122      39.763  -4.732 -17.078  1.00  0.00     0.408 P 
ATOM   9265  C1  POP   122      38.321  -6.895 -16.573  1.00  0.00     0.216 C 
ATOM   9266  C2  POP   122      38.753  -8.314 -16.106  1.00  0.00     0.180 C 
ATOM   9267  C3  POP   122      40.010  -8.826 -16.848  1.00  0.00     0.213 C 
ATOM   9268  C11 POP   122      40.396  -5.325 -19.554  1.00  0.00     0.225 C 
ATOM   9269  O11 POP   122      39.296  -5.932 -16.189  1.00  0.00    -0.287 OA
ATOM   9270  C12 POP   122      40.968  -3.949 -20.025  1.00  0.00     0.307 C 
ATOM   9271  O12 POP   122      39.367  -5.152 -18.575  1.00  0.00    -0.287 OA
ATOM   9272  C13 POP   122      42.255  -4.153 -20.866  1.00  0.00     0.206 C 
ATOM   9273  O13 POP   122      38.964  -3.545 -16.750  1.00  0.00    -0.624 OA
ATOM   9274  O13 POP   122      42.282  -3.704 -22.053  1.00  0.00    -0.646 OA
ATOM   9275  O13 POP   122      43.179  -4.830 -20.374  1.00  0.00    -0.646 OA
ATOM   9276  O14 POP   122      41.225  -4.601 -16.981  1.00  0.00    -0.624 OA
ATOM   9277  C21 POP   122      38.165  -8.296 -13.838  1.00  0.00     0.259 C 
ATOM   9278  O21 POP   122      39.116  -8.353 -14.719  1.00  0.00    -0.312 OA
ATOM   9279  C22 POP   122      38.791  -8.353 -12.449  1.00  0.00     0.111 C 
ATOM   9280  O22 POP   122      36.969  -8.343 -14.055  1.00  0.00    -0.265 OA
ATOM   9281  C23 POP   122      38.468  -9.689 -11.736  1.00  0.00     0.010 C 
ATOM   9282  C24 POP   122      38.988  -9.639 -10.301  1.00  0.00     0.000 C 
ATOM   9283  C25 POP   122      37.975  -8.862  -9.497  1.00  0.00     0.000 C 
ATOM   9284  C26 POP   122      38.350  -8.609  -7.998  1.00  0.00     0.000 C 
ATOM   9285  C27 POP   122      38.688  -9.800  -7.063  1.00  0.00     0.004 C 
ATOM   9286  C28 POP   122      39.290  -9.316  -5.713  1.00  0.00     0.027 C 
ATOM   9287  C29 POP   122      38.398  -8.621  -4.716  1.00  0.00    -0.031 C 
ATOM   9288  C31 POP   122      42.293  -8.217 -16.968  1.00  0.00     0.258 C 
ATOM   9289  O31 POP   122      41.099  -7.974 -16.498  1.00  0.00    -0.319 OA
ATOM   9290  C32 POP   122      43.261  -7.177 -16.406  1.00  0.00     0.111 C 
ATOM   9291  O32 POP   122      42.579  -9.146 -17.705  1.00  0.00    -0.265 OA
ATOM   9292  C33 POP   122      42.900  -6.683 -14.970  1.00  0.00     0.010 C 
ATOM   9293  C34 POP   122      43.223  -7.744 -13.905  1.00  0.00     0.000 C 
ATOM   9294  C35 POP   122      42.884  -7.381 -12.441  1.00  0.00     0.000 C 
ATOM   9295  C36 POP   122      43.383  -6.002 -11.950  1.00  0.00     0.000 C 
ATOM   9296  C37 POP   122      43.716  -5.899 -10.439  1.00  0.00     0.000 C 
ATOM   9297  C38 POP   122      42.458  -5.994  -9.549  1.00  0.00     0.000 C 
ATOM   9298  C39 POP   122      42.663  -5.680  -8.060  1.00  0.00     0.000 C 
ATOM   9299  C21 POP   122      38.392  -8.804  -3.384  1.00  0.00    -0.031 C 
ATOM   9300  C21 POP   122      39.242  -9.734  -2.544  1.00  0.00     0.027 C 
ATOM   9301  C21 POP   122      40.419  -8.981  -1.903  1.00  0.00     0.004 C 
ATOM   9302  C21 POP   122      39.917  -7.817  -1.035  1.00  0.00     0.000 C 
ATOM   9303  C21 POP   122      40.876  -7.319   0.045  1.00  0.00     0.000 C 
ATOM   9304  C21 POP   122      42.344  -7.210  -0.381  1.00  0.00     0.000 C 
ATOM   9305  C21 POP   122      42.602  -6.154  -1.468  1.00  0.00    -0.000 C 
ATOM   9306  C21 POP   122      44.089  -5.849  -1.729  1.00  0.00    -0.005 C 
ATOM   9307  C21 POP   122      44.302  -4.743  -2.765  1.00  0.00     0.005 C 
ATOM   9308  C31 POP   122      41.371  -5.690  -7.211  1.00  0.00     0.000 C 
ATOM   9309  C31 POP   122      40.151  -4.915  -7.759  1.00  0.00     0.000 C 
ATOM   9310  C31 POP   122      39.013  -4.756  -6.734  1.00  0.00     0.000 C 
ATOM   9311  C31 POP   122      39.502  -4.110  -5.427  1.00  0.00     0.000 C 
ATOM   9312  C31 POP   122      38.496  -4.103  -4.272  1.00  0.00    -0.000 C 
ATOM   9313  C31 POP   122      38.386  -2.847  -3.523  1.00  0.00    -0.005 C 
ATOM   9314  C31 POP   122      37.311  -2.948  -2.375  1.00  0.00     0.005 C 
ATOM   9315  HN1 POP   122      40.178  -2.245 -20.898  1.00  0.00     0.275 HD
ATOM   9316  HN2 POP   122      39.879  -3.695 -21.720  1.00  0.00     0.275 HD
ATOM   9317  HN3 POP   122      38.996  -3.332 -20.303  1.00  0.00     0.275 HD
ATOM   9318  P   POP   123      12.012 -38.947 -19.944  1.00  0.00     0.408 P 
ATOM   9319  C1  POP   123      13.955 -40.049 -18.587  1.00  0.00     0.216 C 
ATOM   9320  C2  POP   123      14.480 -40.293 -17.138  1.00  0.00     0.180 C 
ATOM   9321  O2  POP   123      12.345 -41.773 -23.345  1.00  0.00    -0.390 OA
ATOM   9322  C3  POP   123      15.120 -38.977 -16.569  1.00  0.00     0.213 C 
ATOM   9323  O3  POP   123      10.598 -40.931 -25.310  1.00  0.00    -0.390 OA
ATOM   9324  O4  POP   123      12.434 -39.251 -26.649  1.00  0.00    -0.390 OA
ATOM   9325  O5  POP   123      14.531 -37.993 -25.144  1.00  0.00    -0.390 OA
ATOM   9326  O6  POP   123      14.548 -38.193 -22.330  1.00  0.00    -0.390 OA
ATOM   9327  C11 POP   123      12.467 -39.459 -22.440  1.00  0.00     0.197 C 
ATOM   9328  O11 POP   123      12.590 -39.599 -18.620  1.00  0.00    -0.287 OA
ATOM   9329  C12 POP   123      11.691 -40.506 -23.215  1.00  0.00     0.181 C 
ATOM   9330  O12 POP   123      12.693 -39.904 -21.098  1.00  0.00    -0.279 OA
ATOM   9331  C13 POP   123      11.363 -39.962 -24.582  1.00  0.00     0.180 C 
ATOM   9332  O13 POP   123      10.543 -39.103 -20.044  1.00  0.00    -0.624 OA
ATOM   9333  C14 POP   123      12.661 -39.571 -25.279  1.00  0.00     0.180 C 
ATOM   9334  O14 POP   123      12.605 -37.605 -20.191  1.00  0.00    -0.624 OA
ATOM   9335  C15 POP   123      13.399 -38.506 -24.468  1.00  0.00     0.180 C 
ATOM   9336  C16 POP   123      13.774 -39.102 -23.115  1.00  0.00     0.181 C 
ATOM   9337  C21 POP   123      13.722 -41.273 -15.122  1.00  0.00     0.259 C 
ATOM   9338  O21 POP   123      13.394 -40.765 -16.301  1.00  0.00    -0.312 OA
ATOM   9339  C22 POP   123      12.431 -41.568 -14.333  1.00  0.00     0.111 C 
ATOM   9340  O22 POP   123      14.861 -41.466 -14.735  1.00  0.00    -0.265 OA
ATOM   9341  C23 POP   123      12.701 -42.537 -13.150  1.00  0.00     0.010 C 
ATOM   9342  C24 POP   123      11.647 -42.666 -12.026  1.00  0.00     0.000 C 
ATOM   9343  C25 POP   123      11.410 -41.362 -11.245  1.00  0.00     0.000 C 
ATOM   9344  C26 POP   123      10.418 -41.463 -10.070  1.00  0.00     0.000 C 
ATOM   9345  C27 POP   123      10.818 -42.382  -8.901  1.00  0.00     0.004 C 
ATOM   9346  C28 POP   123      11.904 -41.757  -7.991  1.00  0.00     0.027 C 
ATOM   9347  C29 POP   123      12.666 -42.745  -7.135  1.00  0.00    -0.031 C 
ATOM   9348  C31 POP   123      14.655 -36.760 -16.000  1.00  0.00     0.258 C 
ATOM   9349  O31 POP   123      14.232 -37.840 -16.663  1.00  0.00    -0.319 OA
ATOM   9350  C32 POP   123      13.514 -35.738 -15.907  1.00  0.00     0.111 C 
ATOM   9351  O32 POP   123      15.771 -36.631 -15.526  1.00  0.00    -0.265 OA
ATOM   9352  C33 POP   123      13.095 -35.455 -14.441  1.00  0.00     0.010 C 
ATOM   9353  C34 POP   123      12.356 -36.646 -13.811  1.00  0.00     0.000 C 
ATOM   9354  C35 POP   123      11.527 -36.269 -12.580  1.00  0.00     0.000 C 
ATOM   9355  C36 POP   123      10.901 -37.543 -11.995  1.00  0.00     0.000 C 
ATOM   9356  C37 POP   123      10.262 -37.458 -10.603  1.00  0.00     0.000 C 
ATOM   9357  C38 POP   123      11.004 -36.741  -9.458  1.00  0.00     0.000 C 
ATOM   9358  C39 POP   123      12.321 -37.403  -9.009  1.00  0.00     0.000 C 
ATOM   9359  C21 POP   123      13.254 -42.518  -5.937  1.00  0.00    -0.031 C 
ATOM   9360  C21 POP   123      13.270 -41.203  -5.186  1.00  0.00     0.027 C 
ATOM   9361  C21 POP   123      13.147 -41.245  -3.646  1.00  0.00     0.004 C 
ATOM   9362  C21 POP   123      14.484 -40.976  -2.901  1.00  0.00     0.000 C 
ATOM   9363  C21 POP   123      14.443 -41.236  -1.400  1.00  0.00     0.000 C 
ATOM   9364  C21 POP   123      15.670 -41.168  -0.509  1.00  0.00     0.000 C 
ATOM   9365  C21 POP   123      16.142 -39.784  -0.532  1.00  0.00    -0.000 C 
ATOM   9366  C21 POP   123      15.121 -38.969   0.022  1.00  0.00    -0.005 C 
ATOM   9367  C21 POP   123      15.863 -37.615   0.454  1.00  0.00     0.005 C 
ATOM   9368  C31 POP   123      13.054 -36.692  -7.835  1.00  0.00     0.000 C 
ATOM   9369  C31 POP   123      12.832 -37.248  -6.399  1.00  0.00     0.000 C 
ATOM   9370  C31 POP   123      13.617 -36.470  -5.286  1.00  0.00     0.000 C 
ATOM   9371  C31 POP   123      13.466 -37.031  -3.825  1.00  0.00     0.000 C 
ATOM   9372  C31 POP   123      14.276 -36.583  -2.555  1.00  0.00    -0.000 C 
ATOM   9373  C31 POP   123      14.004 -35.210  -2.049  1.00  0.00    -0.005 C 
ATOM   9374  C31 POP   123      12.449 -34.910  -1.702  1.00  0.00     0.005 C 
ATOM   9375  HO2 POP   123      11.952 -42.374 -22.704  1.00  0.00     0.210 HD
ATOM   9376  HO3 POP   123      10.943 -41.777 -25.013  1.00  0.00     0.210 HD
ATOM   9377  HO4 POP   123      11.925 -39.986 -26.988  1.00  0.00     0.210 HD
ATOM   9378  HO5 POP   123      15.151 -38.722 -25.255  1.00  0.00     0.210 HD
ATOM   9379  HO6 POP   123      13.961 -37.815 -21.655  1.00  0.00     0.210 HD
ATOM   9380  N   POP   124     -32.725  28.495 -21.030  1.00  0.00    -0.077 N 
ATOM   9381  P   POP   124     -29.746  29.459 -17.821  1.00  0.00     0.408 P 
ATOM   9382  C1  POP   124     -29.403  27.020 -17.040  1.00  0.00     0.216 C 
ATOM   9383  C2  POP   124     -29.074  27.027 -15.526  1.00  0.00     0.180 C 
ATOM   9384  C3  POP   124     -29.833  25.879 -14.800  1.00  0.00     0.213 C 
ATOM   9385  C11 POP   124     -30.325  28.305 -20.152  1.00  0.00     0.208 C 
ATOM   9386  O11 POP   124     -28.864  28.151 -17.734  1.00  0.00    -0.287 OA
ATOM   9387  C12 POP   124     -31.247  28.683 -21.325  1.00  0.00     0.256 C 
ATOM   9388  O12 POP   124     -30.748  29.026 -18.993  1.00  0.00    -0.288 OA
ATOM   9389  O13 POP   124     -30.585  29.598 -16.613  1.00  0.00    -0.624 OA
ATOM   9390  O14 POP   124     -28.950  30.603 -18.299  1.00  0.00    -0.624 OA
ATOM   9391  C21 POP   124     -26.998  27.911 -14.905  1.00  0.00     0.259 C 
ATOM   9392  O21 POP   124     -27.651  26.855 -15.357  1.00  0.00    -0.312 OA
ATOM   9393  C22 POP   124     -25.543  27.512 -14.661  1.00  0.00     0.111 C 
ATOM   9394  O22 POP   124     -27.454  29.002 -14.639  1.00  0.00    -0.265 OA
ATOM   9395  C23 POP   124     -25.136  27.947 -13.233  1.00  0.00     0.010 C 
ATOM   9396  C24 POP   124     -25.564  26.965 -12.114  1.00  0.00     0.000 C 
ATOM   9397  C25 POP   124     -25.044  27.423 -10.746  1.00  0.00     0.000 C 
ATOM   9398  C26 POP   124     -25.575  28.770 -10.222  1.00  0.00     0.000 C 
ATOM   9399  C27 POP   124     -27.076  28.762  -9.878  1.00  0.00     0.004 C 
ATOM   9400  C28 POP   124     -27.389  27.944  -8.606  1.00  0.00     0.027 C 
ATOM   9401  C29 POP   124     -28.841  28.064  -8.214  1.00  0.00    -0.031 C 
ATOM   9402  C31 POP   124     -29.643  24.599 -12.838  1.00  0.00     0.258 C 
ATOM   9403  O31 POP   124     -29.242  25.677 -13.497  1.00  0.00    -0.319 OA
ATOM   9404  C32 POP   124     -29.054  24.605 -11.429  1.00  0.00     0.111 C 
ATOM   9405  O32 POP   124     -30.441  23.782 -13.252  1.00  0.00    -0.265 OA
ATOM   9406  C33 POP   124     -28.181  23.368 -11.077  1.00  0.00     0.010 C 
ATOM   9407  C34 POP   124     -27.552  23.581  -9.688  1.00  0.00     0.000 C 
ATOM   9408  C35 POP   124     -26.963  22.385  -8.962  1.00  0.00     0.000 C 
ATOM   9409  C36 POP   124     -26.272  22.782  -7.642  1.00  0.00     0.000 C 
ATOM   9410  C37 POP   124     -25.805  21.661  -6.732  1.00  0.00     0.000 C 
ATOM   9411  C38 POP   124     -25.439  21.904  -5.294  1.00  0.00     0.000 C 
ATOM   9412  C39 POP   124     -26.656  22.555  -4.575  1.00  0.00     0.000 C 
ATOM   9413  C21 POP   124     -29.561  27.199  -7.482  1.00  0.00    -0.031 C 
ATOM   9414  C21 POP   124     -29.109  25.900  -6.863  1.00  0.00     0.027 C 
ATOM   9415  C21 POP   124     -29.343  25.973  -5.341  1.00  0.00     0.004 C 
ATOM   9416  C21 POP   124     -28.291  26.775  -4.555  1.00  0.00     0.000 C 
ATOM   9417  C21 POP   124     -27.710  26.025  -3.345  1.00  0.00     0.000 C 
ATOM   9418  C21 POP   124     -26.400  26.669  -2.827  1.00  0.00     0.000 C 
ATOM   9419  C21 POP   124     -26.415  28.190  -2.563  1.00  0.00    -0.000 C 
ATOM   9420  C21 POP   124     -27.388  28.661  -1.468  1.00  0.00    -0.005 C 
ATOM   9421  C21 POP   124     -27.379  27.782  -0.213  1.00  0.00     0.005 C 
ATOM   9422  C31 POP   124     -27.404  21.636  -3.702  1.00  0.00     0.000 C 
ATOM   9423  C31 POP   124     -26.582  22.072  -2.566  1.00  0.00     0.000 C 
ATOM   9424  C31 POP   124     -26.766  22.572  -1.044  1.00  0.00     0.000 C 
ATOM   9425  C31 POP   124     -28.214  22.583  -0.975  1.00  0.00     0.000 C 
ATOM   9426  C31 POP   124     -28.153  23.569   0.082  1.00  0.00    -0.000 C 
ATOM   9427  C31 POP   124     -29.266  24.389   0.434  1.00  0.00    -0.005 C 
ATOM   9428  C31 POP   124     -30.340  23.517   1.019  1.00  0.00     0.005 C 
ATOM   9429  HN1 POP   124     -33.128  29.317 -20.516  1.00  0.00     0.274 HD
ATOM   9430  HN2 POP   124     -33.265  28.303 -21.903  1.00  0.00     0.274 HD
ATOM   9431  HN3 POP   124     -32.825  27.686 -20.391  1.00  0.00     0.274 HD
ATOM   9432  P   POP   125      39.692   9.350 -19.542  1.00  0.00     0.408 P 
ATOM   9433  C1  POP   125      42.091  10.006 -18.635  1.00  0.00     0.216 C 
ATOM   9434  C2  POP   125      42.700  10.805 -17.446  1.00  0.00     0.180 C 
ATOM   9435  O2  POP   125      41.478   7.114 -22.354  1.00  0.00    -0.390 OA
ATOM   9436  C3  POP   125      42.917  12.314 -17.797  1.00  0.00     0.213 C 
ATOM   9437  O3  POP   125      39.444   5.621 -23.744  1.00  0.00    -0.390 OA
ATOM   9438  O4  POP   125      39.607   7.433 -26.047  1.00  0.00    -0.390 OA
ATOM   9439  O5  POP   125      40.560  10.025 -25.699  1.00  0.00    -0.390 OA
ATOM   9440  O6  POP   125      40.431  11.149 -23.113  1.00  0.00    -0.390 OA
ATOM   9441  C11 POP   125      39.930   8.971 -22.145  1.00  0.00     0.197 C 
ATOM   9442  O11 POP   125      40.670  10.128 -18.580  1.00  0.00    -0.287 OA
ATOM   9443  C12 POP   125      40.104   7.467 -22.332  1.00  0.00     0.181 C 
ATOM   9444  O12 POP   125      40.538   9.449 -20.945  1.00  0.00    -0.279 OA
ATOM   9445  C13 POP   125      39.453   7.040 -23.626  1.00  0.00     0.180 C 
ATOM   9446  O13 POP   125      39.642   7.919 -19.184  1.00  0.00    -0.624 OA
ATOM   9447  C14 POP   125      40.156   7.768 -24.781  1.00  0.00     0.180 C 
ATOM   9448  O14 POP   125      38.397  10.034 -19.707  1.00  0.00    -0.624 OA
ATOM   9449  C15 POP   125      40.057   9.268 -24.579  1.00  0.00     0.180 C 
ATOM   9450  C16 POP   125      40.629   9.734 -23.260  1.00  0.00     0.181 C 
ATOM   9451  C21 POP   125      41.622   9.536 -15.807  1.00  0.00     0.259 C 
ATOM   9452  O21 POP   125      41.866  10.741 -16.278  1.00  0.00    -0.312 OA
ATOM   9453  C22 POP   125      40.617   9.665 -14.635  1.00  0.00     0.111 C 
ATOM   9454  O22 POP   125      42.217   8.516 -16.105  1.00  0.00    -0.265 OA
ATOM   9455  C23 POP   125      39.812   8.372 -14.308  1.00  0.00     0.010 C 
ATOM   9456  C24 POP   125      39.527   8.104 -12.808  1.00  0.00     0.000 C 
ATOM   9457  C25 POP   125      39.026   9.334 -12.047  1.00  0.00     0.000 C 
ATOM   9458  C26 POP   125      38.525   9.031 -10.627  1.00  0.00     0.000 C 
ATOM   9459  C27 POP   125      38.196  10.303  -9.834  1.00  0.00     0.004 C 
ATOM   9460  C28 POP   125      39.321  11.350  -9.676  1.00  0.00     0.027 C 
ATOM   9461  C29 POP   125      40.507  10.854  -8.875  1.00  0.00    -0.031 C 
ATOM   9462  C31 POP   125      41.804  13.721 -16.271  1.00  0.00     0.258 C 
ATOM   9463  O31 POP   125      42.986  13.194 -16.648  1.00  0.00    -0.319 OA
ATOM   9464  C32 POP   125      41.993  14.841 -15.248  1.00  0.00     0.111 C 
ATOM   9465  O32 POP   125      40.725  13.349 -16.682  1.00  0.00    -0.265 OA
ATOM   9466  C33 POP   125      42.568  14.312 -13.915  1.00  0.00     0.010 C 
ATOM   9467  C34 POP   125      41.662  13.248 -13.265  1.00  0.00     0.000 C 
ATOM   9468  C35 POP   125      42.415  12.148 -12.506  1.00  0.00     0.000 C 
ATOM   9469  C36 POP   125      43.184  12.674 -11.298  1.00  0.00     0.000 C 
ATOM   9470  C37 POP   125      44.057  11.607 -10.622  1.00  0.00     0.000 C 
ATOM   9471  C38 POP   125      44.795  12.184  -9.405  1.00  0.00     0.000 C 
ATOM   9472  C39 POP   125      45.393  11.153  -8.434  1.00  0.00     0.000 C 
ATOM   9473  C21 POP   125      40.569  10.593  -7.546  1.00  0.00    -0.031 C 
ATOM   9474  C21 POP   125      39.465  10.731  -6.519  1.00  0.00     0.027 C 
ATOM   9475  C21 POP   125      39.354   9.756  -5.304  1.00  0.00     0.004 C 
ATOM   9476  C21 POP   125      39.414   8.240  -5.559  1.00  0.00     0.000 C 
ATOM   9477  C21 POP   125      39.144   7.386  -4.296  1.00  0.00     0.000 C 
ATOM   9478  C21 POP   125      40.141   7.553  -3.121  1.00  0.00     0.000 C 
ATOM   9479  C21 POP   125      39.714   6.731  -1.883  1.00  0.00    -0.000 C 
ATOM   9480  C21 POP   125      40.512   7.000  -0.584  1.00  0.00    -0.005 C 
ATOM   9481  C21 POP   125      42.026   6.771  -0.700  1.00  0.00     0.005 C 
ATOM   9482  C31 POP   125      45.285  11.613  -6.973  1.00  0.00     0.000 C 
ATOM   9483  C31 POP   125      44.031  11.174  -6.233  1.00  0.00     0.000 C 
ATOM   9484  C31 POP   125      44.200  11.284  -4.714  1.00  0.00     0.000 C 
ATOM   9485  C31 POP   125      43.048  10.621  -3.964  1.00  0.00     0.000 C 
ATOM   9486  C31 POP   125      42.950  11.080  -2.513  1.00  0.00    -0.000 C 
ATOM   9487  C31 POP   125      44.210  10.755  -1.695  1.00  0.00    -0.005 C 
ATOM   9488  C31 POP   125      44.051  10.679  -0.190  1.00  0.00     0.005 C 
ATOM   9489  HO2 POP   125      41.839   7.221 -21.458  1.00  0.00     0.210 HD
ATOM   9490  HO3 POP   125      40.035   5.434 -24.480  1.00  0.00     0.210 HD
ATOM   9491  HO4 POP   125      40.326   7.450 -26.676  1.00  0.00     0.210 HD
ATOM   9492  HO5 POP   125      39.794  10.420 -26.132  1.00  0.00     0.210 HD
ATOM   9493  HO6 POP   125      41.214  11.626 -23.394  1.00  0.00     0.210 HD
ATOM   9494  N   POP   126      22.654  37.474 -19.198  1.00  0.00    -0.063 N 
ATOM   9495  P   POP   126      24.675  34.134 -17.379  1.00  0.00     0.408 P 
ATOM   9496  C1  POP   126      26.063  36.331 -16.723  1.00  0.00     0.216 C 
ATOM   9497  C2  POP   126      25.542  37.222 -15.534  1.00  0.00     0.180 C 
ATOM   9498  C3  POP   126      24.003  37.508 -15.501  1.00  0.00     0.213 C 
ATOM   9499  C11 POP   126      22.930  35.004 -19.111  1.00  0.00     0.225 C 
ATOM   9500  O11 POP   126      25.703  34.972 -16.559  1.00  0.00    -0.287 OA
ATOM   9501  C12 POP   126      22.872  36.250 -20.014  1.00  0.00     0.307 C 
ATOM   9502  O12 POP   126      23.786  35.292 -18.008  1.00  0.00    -0.287 OA
ATOM   9503  C13 POP   126      21.744  36.043 -21.003  1.00  0.00     0.206 C 
ATOM   9504  O13 POP   126      25.413  33.466 -18.461  1.00  0.00    -0.624 OA
ATOM   9505  O13 POP   126      20.712  36.746 -20.867  1.00  0.00    -0.646 OA
ATOM   9506  O13 POP   126      21.922  35.218 -21.923  1.00  0.00    -0.646 OA
ATOM   9507  O14 POP   126      23.855  33.307 -16.475  1.00  0.00    -0.624 OA
ATOM   9508  C21 POP   126      27.069  36.461 -13.874  1.00  0.00     0.259 C 
ATOM   9509  O21 POP   126      25.824  36.648 -14.241  1.00  0.00    -0.312 OA
ATOM   9510  C22 POP   126      27.104  35.537 -12.635  1.00  0.00     0.111 C 
ATOM   9511  O22 POP   126      28.056  36.969 -14.382  1.00  0.00    -0.265 OA
ATOM   9512  C23 POP   126      27.501  36.249 -11.307  1.00  0.00     0.010 C 
ATOM   9513  C24 POP   126      27.220  35.409 -10.048  1.00  0.00     0.000 C 
ATOM   9514  C25 POP   126      27.510  36.213  -8.770  1.00  0.00     0.000 C 
ATOM   9515  C26 POP   126      27.303  35.433  -7.463  1.00  0.00     0.000 C 
ATOM   9516  C27 POP   126      27.905  36.112  -6.212  1.00  0.00     0.004 C 
ATOM   9517  C28 POP   126      27.482  35.376  -4.935  1.00  0.00     0.027 C 
ATOM   9518  C29 POP   126      26.013  35.587  -4.665  1.00  0.00    -0.031 C 
ATOM   9519  C31 POP   126      22.036  36.513 -14.716  1.00  0.00     0.258 C 
ATOM   9520  O31 POP   126      23.258  36.323 -15.174  1.00  0.00    -0.319 OA
ATOM   9521  C32 POP   126      21.419  35.182 -14.335  1.00  0.00     0.111 C 
ATOM   9522  O32 POP   126      21.483  37.596 -14.626  1.00  0.00    -0.265 OA
ATOM   9523  C33 POP   126      21.579  34.963 -12.819  1.00  0.00     0.010 C 
ATOM   9524  C34 POP   126      23.014  34.789 -12.297  1.00  0.00     0.000 C 
ATOM   9525  C35 POP   126      23.072  34.833 -10.758  1.00  0.00     0.000 C 
ATOM   9526  C36 POP   126      22.903  33.510  -9.994  1.00  0.00     0.000 C 
ATOM   9527  C37 POP   126      22.763  33.758  -8.473  1.00  0.00     0.000 C 
ATOM   9528  C38 POP   126      21.341  33.937  -7.927  1.00  0.00     0.000 C 
ATOM   9529  C39 POP   126      21.285  33.711  -6.395  1.00  0.00     0.000 C 
ATOM   9530  C21 POP   126      25.520  36.308  -3.658  1.00  0.00    -0.031 C 
ATOM   9531  C21 POP   126      26.318  37.037  -2.616  1.00  0.00     0.027 C 
ATOM   9532  C21 POP   126      26.143  38.549  -2.868  1.00  0.00     0.004 C 
ATOM   9533  C21 POP   126      26.821  39.411  -1.806  1.00  0.00     0.000 C 
ATOM   9534  C21 POP   126      26.385  39.020  -0.386  1.00  0.00     0.000 C 
ATOM   9535  C21 POP   126      24.871  38.760  -0.213  1.00  0.00     0.000 C 
ATOM   9536  C21 POP   126      23.998  39.991  -0.455  1.00  0.00    -0.000 C 
ATOM   9537  C21 POP   126      22.521  39.784  -0.096  1.00  0.00    -0.005 C 
ATOM   9538  C21 POP   126      21.821  38.711  -0.938  1.00  0.00     0.005 C 
ATOM   9539  C31 POP   126      21.947  34.763  -5.484  1.00  0.00     0.000 C 
ATOM   9540  C31 POP   126      21.762  34.455  -3.975  1.00  0.00     0.000 C 
ATOM   9541  C31 POP   126      22.721  33.396  -3.381  1.00  0.00     0.000 C 
ATOM   9542  C31 POP   126      23.016  33.504  -1.868  1.00  0.00     0.000 C 
ATOM   9543  C31 POP   126      21.784  33.436  -0.955  1.00  0.00    -0.000 C 
ATOM   9544  C31 POP   126      20.922  32.165  -1.045  1.00  0.00    -0.005 C 
ATOM   9545  C31 POP   126      21.631  30.807  -1.041  1.00  0.00     0.005 C 
ATOM   9546  HN1 POP   126      21.615  37.536 -19.074  1.00  0.00     0.275 HD
ATOM   9547  HN2 POP   126      23.148  37.308 -18.297  1.00  0.00     0.275 HD
ATOM   9548  HN3 POP   126      23.030  38.268 -19.747  1.00  0.00     0.275 HD
ATOM   9549  N   POP   127     -35.981 -23.152 -21.397  1.00  0.00    -0.063 N 
ATOM   9550  P   POP   127     -36.144 -19.948 -17.444  1.00  0.00     0.408 P 
ATOM   9551  C1  POP   127     -38.316 -20.531 -16.113  1.00  0.00     0.216 C 
ATOM   9552  C2  POP   127     -39.224 -19.354 -15.716  1.00  0.00     0.180 C 
ATOM   9553  C3  POP   127     -40.664 -19.840 -15.417  1.00  0.00     0.213 C 
ATOM   9554  C11 POP   127     -35.916 -21.621 -19.457  1.00  0.00     0.225 C 
ATOM   9555  O11 POP   127     -36.953 -20.109 -16.104  1.00  0.00    -0.287 OA
ATOM   9556  C12 POP   127     -36.655 -22.834 -20.094  1.00  0.00     0.307 C 
ATOM   9557  O12 POP   127     -36.401 -21.347 -18.149  1.00  0.00    -0.287 OA
ATOM   9558  C13 POP   127     -38.173 -22.577 -20.270  1.00  0.00     0.206 C 
ATOM   9559  O13 POP   127     -36.721 -18.883 -18.290  1.00  0.00    -0.624 OA
ATOM   9560  O13 POP   127     -38.623 -22.627 -21.456  1.00  0.00    -0.646 OA
ATOM   9561  O13 POP   127     -38.882 -22.326 -19.264  1.00  0.00    -0.646 OA
ATOM   9562  O14 POP   127     -34.692 -19.892 -17.165  1.00  0.00    -0.624 OA
ATOM   9563  C21 POP   127     -38.169 -17.586 -14.549  1.00  0.00     0.259 C 
ATOM   9564  O21 POP   127     -38.743 -18.755 -14.499  1.00  0.00    -0.312 OA
ATOM   9565  C22 POP   127     -37.869 -17.149 -13.127  1.00  0.00     0.111 C 
ATOM   9566  O22 POP   127     -37.995 -16.886 -15.525  1.00  0.00    -0.265 OA
ATOM   9567  C23 POP   127     -36.602 -16.326 -13.104  1.00  0.00     0.010 C 
ATOM   9568  C24 POP   127     -36.250 -16.031 -11.676  1.00  0.00     0.000 C 
ATOM   9569  C25 POP   127     -35.343 -17.053 -11.029  1.00  0.00     0.000 C 
ATOM   9570  C26 POP   127     -35.696 -18.465 -10.691  1.00  0.00     0.000 C 
ATOM   9571  C27 POP   127     -34.517 -19.209 -10.001  1.00  0.00     0.004 C 
ATOM   9572  C28 POP   127     -34.944 -20.640  -9.647  1.00  0.00     0.027 C 
ATOM   9573  C29 POP   127     -33.946 -21.414  -8.824  1.00  0.00    -0.031 C 
ATOM   9574  C31 POP   127     -40.803 -20.191 -12.995  1.00  0.00     0.258 C 
ATOM   9575  O31 POP   127     -40.782 -20.670 -14.247  1.00  0.00    -0.319 OA
ATOM   9576  C32 POP   127     -40.613 -21.287 -12.034  1.00  0.00     0.111 C 
ATOM   9577  O32 POP   127     -40.901 -19.077 -12.564  1.00  0.00    -0.265 OA
ATOM   9578  C33 POP   127     -39.129 -21.643 -12.146  1.00  0.00     0.010 C 
ATOM   9579  C34 POP   127     -38.741 -22.869 -11.335  1.00  0.00     0.000 C 
ATOM   9580  C35 POP   127     -39.767 -23.991 -11.505  1.00  0.00     0.000 C 
ATOM   9581  C36 POP   127     -39.389 -25.289 -10.789  1.00  0.00     0.000 C 
ATOM   9582  C37 POP   127     -39.206 -25.155  -9.254  1.00  0.00     0.000 C 
ATOM   9583  C38 POP   127     -40.455 -24.656  -8.481  1.00  0.00     0.000 C 
ATOM   9584  C39 POP   127     -40.195 -24.217  -7.016  1.00  0.00     0.000 C 
ATOM   9585  C21 POP   127     -34.215 -22.005  -7.653  1.00  0.00    -0.031 C 
ATOM   9586  C21 POP   127     -35.523 -22.048  -6.905  1.00  0.00     0.027 C 
ATOM   9587  C21 POP   127     -35.540 -21.279  -5.578  1.00  0.00     0.004 C 
ATOM   9588  C21 POP   127     -34.601 -21.841  -4.490  1.00  0.00     0.000 C 
ATOM   9589  C21 POP   127     -35.046 -23.146  -3.814  1.00  0.00     0.000 C 
ATOM   9590  C21 POP   127     -36.196 -22.972  -2.818  1.00  0.00     0.000 C 
ATOM   9591  C21 POP   127     -36.843 -24.307  -2.428  1.00  0.00    -0.000 C 
ATOM   9592  C21 POP   127     -38.088 -24.214  -1.528  1.00  0.00    -0.005 C 
ATOM   9593  C21 POP   127     -37.907 -23.573  -0.145  1.00  0.00     0.005 C 
ATOM   9594  C31 POP   127     -39.791 -22.733  -7.000  1.00  0.00     0.000 C 
ATOM   9595  C31 POP   127     -39.633 -22.062  -5.628  1.00  0.00     0.000 C 
ATOM   9596  C31 POP   127     -39.548 -20.523  -5.742  1.00  0.00     0.000 C 
ATOM   9597  C31 POP   127     -39.104 -19.818  -4.455  1.00  0.00     0.000 C 
ATOM   9598  C31 POP   127     -40.200 -19.509  -3.429  1.00  0.00    -0.000 C 
ATOM   9599  C31 POP   127     -39.538 -19.113  -2.102  1.00  0.00    -0.005 C 
ATOM   9600  C31 POP   127     -38.505 -17.978  -2.206  1.00  0.00     0.005 C 
ATOM   9601  HN1 POP   127     -36.346 -24.058 -21.764  1.00  0.00     0.275 HD
ATOM   9602  HN2 POP   127     -36.238 -22.393 -22.059  1.00  0.00     0.275 HD
ATOM   9603  HN3 POP   127     -34.961 -23.215 -21.222  1.00  0.00     0.275 HD
ATOM   9604  C1  ERG   128      38.310 -13.590 -15.649  1.00  0.00     0.017 C 
ATOM   9605  C2  ERG   128      38.568 -13.900 -17.143  1.00  0.00     0.033 C 
ATOM   9606  C3  ERG   128      40.053 -14.236 -17.311  1.00  0.00     0.122 C 
ATOM   9607  O3  ERG   128      40.401 -14.409 -18.674  1.00  0.00    -0.395 OA
ATOM   9608  C4  ERG   128      40.379 -15.506 -16.515  1.00  0.00     0.066 C 
ATOM   9609  C5  ERG   128      40.061 -15.333 -15.046  1.00  0.00    -0.069 C 
ATOM   9610  C6  ERG   128      40.968 -15.630 -14.095  1.00  0.00     0.004 C 
ATOM   9611  C7  ERG   128      40.770 -15.471 -12.766  1.00  0.00     0.004 C 
ATOM   9612  C8  ERG   128      39.681 -14.867 -12.243  1.00  0.00    -0.070 C 
ATOM   9613  C9  ERG   128      38.572 -14.323 -13.163  1.00  0.00     0.027 C 
ATOM   9614  C10 ERG   128      38.657 -14.765 -14.684  1.00  0.00    -0.013 C 
ATOM   9615  C11 ERG   128      37.163 -14.489 -12.501  1.00  0.00     0.011 C 
ATOM   9616  C12 ERG   128      37.082 -14.118 -10.991  1.00  0.00     0.011 C 
ATOM   9617  C13 ERG   128      38.136 -14.873 -10.144  1.00  0.00    -0.032 C 
ATOM   9618  C14 ERG   128      39.484 -14.533 -10.769  1.00  0.00     0.023 C 
ATOM   9619  C15 ERG   128      40.568 -14.929  -9.735  1.00  0.00     0.010 C 
ATOM   9620  C16 ERG   128      39.892 -14.695  -8.381  1.00  0.00     0.007 C 
ATOM   9621  C17 ERG   128      38.376 -14.430  -8.667  1.00  0.00     0.002 C 
ATOM   9622  C18 ERG   128      37.912 -16.397 -10.190  1.00  0.00     0.016 C 
ATOM   9623  C19 ERG   128      37.648 -15.913 -14.950  1.00  0.00     0.021 C 
ATOM   9624  C20 ERG   128      37.481 -15.045  -7.578  1.00  0.00     0.008 C 
ATOM   9625  C21 ERG   128      36.023 -14.553  -7.662  1.00  0.00     0.014 C 
ATOM   9626  C22 ERG   128      37.807 -14.676  -6.146  1.00  0.00    -0.026 C 
ATOM   9627  C23 ERG   128      37.899 -15.529  -5.115  1.00  0.00    -0.026 C 
ATOM   9628  C24 ERG   128      38.205 -15.071  -3.716  1.00  0.00     0.007 C 
ATOM   9629  C25 ERG   128      37.077 -15.387  -2.740  1.00  0.00    -0.015 C 
ATOM   9630  C26 ERG   128      37.398 -14.711  -1.398  1.00  0.00     0.010 C 
ATOM   9631  C27 ERG   128      35.731 -14.852  -3.256  1.00  0.00     0.010 C 
ATOM   9632  C28 ERG   128      39.473 -15.792  -3.232  1.00  0.00     0.014 C 
ATOM   9633  H3' ERG   128      39.813 -15.077 -19.022  1.00  0.00     0.210 HD
ATOM   9634  N   POP   129     -18.202 -37.337 -20.127  1.00  0.00    -0.063 N 
ATOM   9635  P   POP   129     -19.619 -39.895 -17.288  1.00  0.00     0.408 P 
ATOM   9636  C1  POP   129     -19.028 -42.429 -17.371  1.00  0.00     0.216 C 
ATOM   9637  C2  POP   129     -17.899 -43.412 -16.967  1.00  0.00     0.180 C 
ATOM   9638  C3  POP   129     -16.692 -43.312 -17.944  1.00  0.00     0.213 C 
ATOM   9639  C11 POP   129     -18.372 -39.809 -19.651  1.00  0.00     0.225 C 
ATOM   9640  O11 POP   129     -18.632 -41.088 -17.082  1.00  0.00    -0.287 OA
ATOM   9641  C12 POP   129     -17.422 -38.571 -19.754  1.00  0.00     0.307 C 
ATOM   9642  O12 POP   129     -19.530 -39.573 -18.842  1.00  0.00    -0.287 OA
ATOM   9643  C13 POP   129     -16.214 -38.868 -20.698  1.00  0.00     0.206 C 
ATOM   9644  O13 POP   129     -20.987 -40.322 -16.958  1.00  0.00    -0.624 OA
ATOM   9645  O13 POP   129     -15.844 -38.024 -21.573  1.00  0.00    -0.646 OA
ATOM   9646  O13 POP   129     -15.614 -39.943 -20.509  1.00  0.00    -0.646 OA
ATOM   9647  O14 POP   129     -19.065 -38.714 -16.591  1.00  0.00    -0.624 OA
ATOM   9648  C21 POP   129     -18.332 -43.513 -14.678  1.00  0.00     0.259 C 
ATOM   9649  O21 POP   129     -17.464 -43.145 -15.609  1.00  0.00    -0.312 OA
ATOM   9650  C22 POP   129     -18.006 -42.849 -13.324  1.00  0.00     0.111 C 
ATOM   9651  O22 POP   129     -19.259 -44.286 -14.848  1.00  0.00    -0.265 OA
ATOM   9652  C23 POP   129     -18.448 -43.736 -12.123  1.00  0.00     0.010 C 
ATOM   9653  C24 POP   129     -18.514 -43.070 -10.736  1.00  0.00     0.000 C 
ATOM   9654  C25 POP   129     -19.567 -41.962 -10.584  1.00  0.00     0.000 C 
ATOM   9655  C26 POP   129     -19.648 -41.503  -9.121  1.00  0.00     0.000 C 
ATOM   9656  C27 POP   129     -20.744 -40.462  -8.867  1.00  0.00     0.004 C 
ATOM   9657  C28 POP   129     -21.183 -40.372  -7.404  1.00  0.00     0.027 C 
ATOM   9658  C29 POP   129     -21.977 -41.561  -6.954  1.00  0.00    -0.031 C 
ATOM   9659  C31 POP   129     -15.077 -41.799 -17.151  1.00  0.00     0.258 C 
ATOM   9660  O31 POP   129     -16.105 -42.006 -17.938  1.00  0.00    -0.319 OA
ATOM   9661  C32 POP   129     -14.882 -40.292 -17.035  1.00  0.00     0.111 C 
ATOM   9662  O32 POP   129     -14.408 -42.670 -16.609  1.00  0.00    -0.265 OA
ATOM   9663  C33 POP   129     -15.779 -39.625 -15.974  1.00  0.00     0.010 C 
ATOM   9664  C34 POP   129     -15.348 -39.775 -14.507  1.00  0.00     0.000 C 
ATOM   9665  C35 POP   129     -16.319 -39.067 -13.539  1.00  0.00     0.000 C 
ATOM   9666  C36 POP   129     -16.189 -39.509 -12.068  1.00  0.00     0.000 C 
ATOM   9667  C37 POP   129     -17.390 -39.047 -11.224  1.00  0.00     0.000 C 
ATOM   9668  C38 POP   129     -17.270 -37.682 -10.515  1.00  0.00     0.000 C 
ATOM   9669  C39 POP   129     -16.324 -37.695  -9.306  1.00  0.00     0.000 C 
ATOM   9670  C21 POP   129     -22.541 -41.621  -5.759  1.00  0.00    -0.031 C 
ATOM   9671  C21 POP   129     -22.466 -40.547  -4.720  1.00  0.00     0.027 C 
ATOM   9672  C21 POP   129     -21.525 -40.735  -3.565  1.00  0.00     0.004 C 
ATOM   9673  C21 POP   129     -20.225 -40.105  -3.925  1.00  0.00     0.000 C 
ATOM   9674  C21 POP   129     -19.490 -39.723  -2.654  1.00  0.00     0.000 C 
ATOM   9675  C21 POP   129     -19.875 -38.300  -2.216  1.00  0.00     0.000 C 
ATOM   9676  C21 POP   129     -19.280 -37.822  -0.877  1.00  0.00    -0.000 C 
ATOM   9677  C21 POP   129     -17.776 -37.504  -0.937  1.00  0.00    -0.005 C 
ATOM   9678  C21 POP   129     -17.135 -36.881   0.321  1.00  0.00     0.005 C 
ATOM   9679  C31 POP   129     -16.565 -38.864  -8.336  1.00  0.00     0.000 C 
ATOM   9680  C31 POP   129     -15.866 -38.590  -7.015  1.00  0.00     0.000 C 
ATOM   9681  C31 POP   129     -16.047 -39.654  -5.928  1.00  0.00     0.000 C 
ATOM   9682  C31 POP   129     -15.779 -41.111  -6.354  1.00  0.00     0.000 C 
ATOM   9683  C31 POP   129     -15.412 -42.013  -5.163  1.00  0.00    -0.000 C 
ATOM   9684  C31 POP   129     -16.496 -42.085  -4.072  1.00  0.00    -0.005 C 
ATOM   9685  C31 POP   129     -16.067 -42.874  -2.828  1.00  0.00     0.005 C 
ATOM   9686  HN1 POP   129     -18.967 -37.245 -19.430  1.00  0.00     0.275 HD
ATOM   9687  HN2 POP   129     -17.598 -36.496 -20.140  1.00  0.00     0.275 HD
ATOM   9688  HN3 POP   129     -18.619 -37.471 -21.069  1.00  0.00     0.275 HD
ATOM   9689  N   POP   130      -5.801  44.642 -19.986  1.00  0.00    -0.063 N 
ATOM   9690  P   POP   130      -6.749  41.562 -17.093  1.00  0.00     0.408 P 
ATOM   9691  C1  POP   130      -5.094  43.312 -16.144  1.00  0.00     0.216 C 
ATOM   9692  C2  POP   130      -5.216  44.654 -15.421  1.00  0.00     0.180 C 
ATOM   9693  C3  POP   130      -5.991  45.709 -16.239  1.00  0.00     0.213 C 
ATOM   9694  C11 POP   130      -7.425  42.828 -19.268  1.00  0.00     0.225 C 
ATOM   9695  O11 POP   130      -6.304  42.586 -16.012  1.00  0.00    -0.287 OA
ATOM   9696  C12 POP   130      -6.886  43.707 -20.433  1.00  0.00     0.307 C 
ATOM   9697  O12 POP   130      -6.386  42.398 -18.406  1.00  0.00    -0.287 OA
ATOM   9698  C13 POP   130      -8.080  44.351 -21.139  1.00  0.00     0.206 C 
ATOM   9699  O13 POP   130      -5.802  40.423 -17.140  1.00  0.00    -0.624 OA
ATOM   9700  O13 POP   130      -8.188  45.608 -21.141  1.00  0.00    -0.646 OA
ATOM   9701  O13 POP   130      -8.903  43.577 -21.688  1.00  0.00    -0.646 OA
ATOM   9702  O14 POP   130      -8.193  41.308 -16.977  1.00  0.00    -0.624 OA
ATOM   9703  C21 POP   130      -5.511  45.395 -13.262  1.00  0.00     0.259 C 
ATOM   9704  O21 POP   130      -5.942  44.542 -14.177  1.00  0.00    -0.312 OA
ATOM   9705  C22 POP   130      -6.549  45.553 -12.165  1.00  0.00     0.111 C 
ATOM   9706  O22 POP   130      -4.401  45.887 -13.283  1.00  0.00    -0.265 OA
ATOM   9707  C23 POP   130      -5.852  45.809 -10.834  1.00  0.00     0.010 C 
ATOM   9708  C24 POP   130      -4.954  44.610 -10.572  1.00  0.00     0.000 C 
ATOM   9709  C25 POP   130      -4.327  44.586  -9.216  1.00  0.00     0.000 C 
ATOM   9710  C26 POP   130      -3.557  43.291  -9.107  1.00  0.00     0.000 C 
ATOM   9711  C27 POP   130      -2.689  43.415  -7.880  1.00  0.00     0.004 C 
ATOM   9712  C28 POP   130      -3.184  43.839  -6.491  1.00  0.00     0.027 C 
ATOM   9713  C29 POP   130      -4.067  42.761  -6.115  1.00  0.00    -0.031 C 
ATOM   9714  C31 POP   130      -8.278  46.034 -15.816  1.00  0.00     0.258 C 
ATOM   9715  O31 POP   130      -7.359  45.409 -16.558  1.00  0.00    -0.319 OA
ATOM   9716  C32 POP   130      -9.600  45.343 -16.040  1.00  0.00     0.111 C 
ATOM   9717  O32 POP   130      -8.077  46.978 -15.073  1.00  0.00    -0.265 OA
ATOM   9718  C33 POP   130     -10.356  45.286 -14.701  1.00  0.00     0.010 C 
ATOM   9719  C34 POP   130      -9.732  44.325 -13.662  1.00  0.00     0.000 C 
ATOM   9720  C35 POP   130      -9.688  42.828 -14.024  1.00  0.00     0.000 C 
ATOM   9721  C36 POP   130      -8.753  41.966 -13.129  1.00  0.00     0.000 C 
ATOM   9722  C37 POP   130      -8.930  42.129 -11.598  1.00  0.00     0.000 C 
ATOM   9723  C38 POP   130      -7.783  41.486 -10.776  1.00  0.00     0.000 C 
ATOM   9724  C39 POP   130      -7.906  41.432  -9.218  1.00  0.00     0.000 C 
ATOM   9725  C21 POP   130      -4.371  42.492  -4.864  1.00  0.00    -0.031 C 
ATOM   9726  C21 POP   130      -3.886  43.221  -3.625  1.00  0.00     0.027 C 
ATOM   9727  C21 POP   130      -2.601  42.580  -3.051  1.00  0.00     0.004 C 
ATOM   9728  C21 POP   130      -2.296  42.824  -1.560  1.00  0.00     0.000 C 
ATOM   9729  C21 POP   130      -3.336  42.227  -0.602  1.00  0.00     0.000 C 
ATOM   9730  C21 POP   130      -4.485  43.164  -0.276  1.00  0.00     0.000 C 
ATOM   9731  C21 POP   130      -5.222  42.748   0.968  1.00  0.00    -0.000 C 
ATOM   9732  C21 POP   130      -6.226  43.877   1.199  1.00  0.00    -0.005 C 
ATOM   9733  C21 POP   130      -7.269  44.004   0.090  1.00  0.00     0.005 C 
ATOM   9734  C31 POP   130      -7.979  42.796  -8.474  1.00  0.00     0.000 C 
ATOM   9735  C31 POP   130      -8.240  42.745  -6.941  1.00  0.00     0.000 C 
ATOM   9736  C31 POP   130      -8.841  44.038  -6.341  1.00  0.00     0.000 C 
ATOM   9737  C31 POP   130      -8.469  44.202  -4.852  1.00  0.00     0.000 C 
ATOM   9738  C31 POP   130      -8.864  45.556  -4.266  1.00  0.00    -0.000 C 
ATOM   9739  C31 POP   130      -8.674  45.743  -2.762  1.00  0.00    -0.005 C 
ATOM   9740  C31 POP   130      -7.201  45.901  -2.409  1.00  0.00     0.005 C 
ATOM   9741  HN1 POP   130      -5.389  45.037 -20.862  1.00  0.00     0.275 HD
ATOM   9742  HN2 POP   130      -6.141  45.438 -19.414  1.00  0.00     0.275 HD
ATOM   9743  HN3 POP   130      -5.136  44.067 -19.427  1.00  0.00     0.275 HD
ATOM   9744  P   POP   131     -45.136  -3.018 -20.020  1.00  0.00     0.408 P 
ATOM   9745  C1  POP   131     -43.033  -3.365 -18.496  1.00  0.00     0.216 C 
ATOM   9746  C2  POP   131     -42.575  -3.328 -17.018  1.00  0.00     0.180 C 
ATOM   9747  O2  POP   131     -42.712  -5.314 -22.777  1.00  0.00    -0.390 OA
ATOM   9748  C3  POP   131     -42.878  -1.957 -16.355  1.00  0.00     0.213 C 
ATOM   9749  O3  POP   131     -43.777  -5.584 -25.432  1.00  0.00    -0.390 OA
ATOM   9750  O4  POP   131     -42.522  -3.397 -26.556  1.00  0.00    -0.390 OA
ATOM   9751  O5  POP   131     -41.706  -1.256 -24.898  1.00  0.00    -0.390 OA
ATOM   9752  O6  POP   131     -42.748  -1.041 -22.288  1.00  0.00    -0.390 OA
ATOM   9753  C11 POP   131     -43.907  -3.208 -22.487  1.00  0.00     0.197 C 
ATOM   9754  O11 POP   131     -44.458  -3.332 -18.617  1.00  0.00    -0.287 OA
ATOM   9755  C12 POP   131     -43.833  -4.553 -23.208  1.00  0.00     0.181 C 
ATOM   9756  O12 POP   131     -43.890  -3.416 -21.057  1.00  0.00    -0.279 OA
ATOM   9757  C13 POP   131     -43.824  -4.343 -24.724  1.00  0.00     0.180 C 
ATOM   9758  O13 POP   131     -46.248  -3.973 -20.207  1.00  0.00    -0.624 OA
ATOM   9759  C14 POP   131     -42.641  -3.480 -25.131  1.00  0.00     0.180 C 
ATOM   9760  O14 POP   131     -45.372  -1.562 -20.161  1.00  0.00    -0.624 OA
ATOM   9761  C15 POP   131     -42.744  -2.130 -24.451  1.00  0.00     0.180 C 
ATOM   9762  C16 POP   131     -42.735  -2.320 -22.936  1.00  0.00     0.181 C 
ATOM   9763  C21 POP   131     -42.612  -5.299 -15.767  1.00  0.00     0.259 C 
ATOM   9764  O21 POP   131     -43.304  -4.334 -16.306  1.00  0.00    -0.312 OA
ATOM   9765  C22 POP   131     -43.624  -6.242 -15.120  1.00  0.00     0.111 C 
ATOM   9766  O22 POP   131     -41.399  -5.419 -15.771  1.00  0.00    -0.265 OA
ATOM   9767  C23 POP   131     -42.956  -7.304 -14.229  1.00  0.00     0.010 C 
ATOM   9768  C24 POP   131     -42.161  -6.717 -13.060  1.00  0.00     0.000 C 
ATOM   9769  C25 POP   131     -42.483  -7.303 -11.685  1.00  0.00     0.000 C 
ATOM   9770  C26 POP   131     -41.894  -6.402 -10.593  1.00  0.00     0.000 C 
ATOM   9771  C27 POP   131     -42.476  -6.630  -9.192  1.00  0.00     0.004 C 
ATOM   9772  C28 POP   131     -42.590  -5.318  -8.387  1.00  0.00     0.027 C 
ATOM   9773  C29 POP   131     -43.749  -4.517  -8.911  1.00  0.00    -0.031 C 
ATOM   9774  C31 POP   131     -41.703  -2.030 -14.295  1.00  0.00     0.258 C 
ATOM   9775  O31 POP   131     -42.870  -2.049 -14.918  1.00  0.00    -0.319 OA
ATOM   9776  C32 POP   131     -41.946  -2.149 -12.791  1.00  0.00     0.111 C 
ATOM   9777  O32 POP   131     -40.614  -1.868 -14.814  1.00  0.00    -0.265 OA
ATOM   9778  C33 POP   131     -41.032  -1.134 -12.053  1.00  0.00     0.010 C 
ATOM   9779  C34 POP   131     -39.559  -1.554 -11.838  1.00  0.00     0.000 C 
ATOM   9780  C35 POP   131     -38.754  -0.684 -10.840  1.00  0.00     0.000 C 
ATOM   9781  C36 POP   131     -39.218  -0.685  -9.365  1.00  0.00     0.000 C 
ATOM   9782  C37 POP   131     -39.052  -2.004  -8.570  1.00  0.00     0.000 C 
ATOM   9783  C38 POP   131     -37.594  -2.484  -8.359  1.00  0.00     0.000 C 
ATOM   9784  C39 POP   131     -37.411  -3.463  -7.164  1.00  0.00     0.000 C 
ATOM   9785  C21 POP   131     -43.940  -3.187  -8.904  1.00  0.00    -0.031 C 
ATOM   9786  C21 POP   131     -43.072  -2.071  -8.371  1.00  0.00     0.027 C 
ATOM   9787  C21 POP   131     -42.888  -2.049  -6.839  1.00  0.00     0.004 C 
ATOM   9788  C21 POP   131     -42.278  -0.743  -6.303  1.00  0.00     0.000 C 
ATOM   9789  C21 POP   131     -42.059  -0.739  -4.780  1.00  0.00     0.000 C 
ATOM   9790  C21 POP   131     -43.225  -1.250  -3.906  1.00  0.00     0.000 C 
ATOM   9791  C21 POP   131     -42.880  -0.861  -2.462  1.00  0.00    -0.000 C 
ATOM   9792  C21 POP   131     -43.825  -1.242  -1.315  1.00  0.00    -0.005 C 
ATOM   9793  C21 POP   131     -43.429  -2.537  -0.601  1.00  0.00     0.005 C 
ATOM   9794  C31 POP   131     -37.923  -4.890  -7.487  1.00  0.00     0.000 C 
ATOM   9795  C31 POP   131     -37.660  -5.994  -6.424  1.00  0.00     0.000 C 
ATOM   9796  C31 POP   131     -38.752  -6.045  -5.340  1.00  0.00     0.000 C 
ATOM   9797  C31 POP   131     -40.108  -6.590  -5.812  1.00  0.00     0.000 C 
ATOM   9798  C31 POP   131     -41.277  -6.200  -4.889  1.00  0.00    -0.000 C 
ATOM   9799  C31 POP   131     -41.410  -4.729  -4.439  1.00  0.00    -0.005 C 
ATOM   9800  C31 POP   131     -40.603  -4.259  -3.217  1.00  0.00     0.005 C 
ATOM   9801  HO2 POP   131     -42.810  -5.346 -21.815  1.00  0.00     0.210 HD
ATOM   9802  HO3 POP   131     -42.922  -5.925 -25.177  1.00  0.00     0.210 HD
ATOM   9803  HO4 POP   131     -43.351  -3.014 -26.872  1.00  0.00     0.210 HD
ATOM   9804  HO5 POP   131     -41.833  -0.433 -24.437  1.00  0.00     0.210 HD
ATOM   9805  HO6 POP   131     -42.042  -1.091 -21.650  1.00  0.00     0.210 HD
ATOM   9806  N   POP   132     -16.061  39.117 -18.085  1.00  0.00    -0.077 N 
ATOM   9807  P   POP   132     -20.071  40.143 -19.433  1.00  0.00     0.408 P 
ATOM   9808  C1  POP   132     -21.551  42.315 -19.403  1.00  0.00     0.216 C 
ATOM   9809  C2  POP   132     -21.215  43.231 -18.198  1.00  0.00     0.180 C 
ATOM   9810  C3  POP   132     -22.475  43.845 -17.529  1.00  0.00     0.213 C 
ATOM   9811  C11 POP   132     -17.636  40.974 -18.914  1.00  0.00     0.208 C 
ATOM   9812  O11 POP   132     -20.399  41.624 -19.886  1.00  0.00    -0.287 OA
ATOM   9813  C12 POP   132     -16.426  40.583 -18.047  1.00  0.00     0.256 C 
ATOM   9814  O12 POP   132     -18.823  40.352 -18.430  1.00  0.00    -0.288 OA
ATOM   9815  O13 POP   132     -21.171  39.505 -18.672  1.00  0.00    -0.624 OA
ATOM   9816  O14 POP   132     -19.524  39.433 -20.604  1.00  0.00    -0.624 OA
ATOM   9817  C21 POP   132     -19.826  43.074 -16.318  1.00  0.00     0.259 C 
ATOM   9818  O21 POP   132     -20.479  42.443 -17.250  1.00  0.00    -0.312 OA
ATOM   9819  C22 POP   132     -19.099  42.051 -15.432  1.00  0.00     0.111 C 
ATOM   9820  O22 POP   132     -19.740  44.284 -16.206  1.00  0.00    -0.265 OA
ATOM   9821  C23 POP   132     -18.929  42.615 -13.995  1.00  0.00     0.010 C 
ATOM   9822  C24 POP   132     -17.927  41.928 -13.030  1.00  0.00     0.000 C 
ATOM   9823  C25 POP   132     -18.318  40.553 -12.455  1.00  0.00     0.000 C 
ATOM   9824  C26 POP   132     -17.294  40.023 -11.435  1.00  0.00     0.000 C 
ATOM   9825  C27 POP   132     -17.813  38.810 -10.630  1.00  0.00     0.004 C 
ATOM   9826  C28 POP   132     -16.698  37.944 -10.017  1.00  0.00     0.027 C 
ATOM   9827  C29 POP   132     -15.794  38.751  -9.124  1.00  0.00    -0.031 C 
ATOM   9828  C31 POP   132     -23.059  43.020 -15.383  1.00  0.00     0.258 C 
ATOM   9829  O31 POP   132     -23.103  42.845 -16.693  1.00  0.00    -0.319 OA
ATOM   9830  C32 POP   132     -23.766  41.856 -14.686  1.00  0.00     0.111 C 
ATOM   9831  O32 POP   132     -22.643  43.998 -14.794  1.00  0.00    -0.265 OA
ATOM   9832  C33 POP   132     -23.004  40.526 -14.848  1.00  0.00     0.010 C 
ATOM   9833  C34 POP   132     -23.705  39.318 -14.212  1.00  0.00     0.000 C 
ATOM   9834  C35 POP   132     -24.069  39.387 -12.713  1.00  0.00     0.000 C 
ATOM   9835  C36 POP   132     -22.967  39.674 -11.686  1.00  0.00     0.000 C 
ATOM   9836  C37 POP   132     -22.461  38.455 -10.881  1.00  0.00     0.000 C 
ATOM   9837  C38 POP   132     -21.663  38.933  -9.654  1.00  0.00     0.000 C 
ATOM   9838  C39 POP   132     -21.198  37.893  -8.622  1.00  0.00     0.000 C 
ATOM   9839  C21 POP   132     -15.919  38.898  -7.797  1.00  0.00    -0.031 C 
ATOM   9840  C21 POP   132     -16.998  38.278  -6.936  1.00  0.00     0.027 C 
ATOM   9841  C21 POP   132     -16.478  37.039  -6.213  1.00  0.00     0.004 C 
ATOM   9842  C21 POP   132     -17.385  36.477  -5.143  1.00  0.00     0.000 C 
ATOM   9843  C21 POP   132     -17.698  37.277  -3.882  1.00  0.00     0.000 C 
ATOM   9844  C21 POP   132     -18.308  36.346  -2.849  1.00  0.00     0.000 C 
ATOM   9845  C21 POP   132     -18.928  37.046  -1.651  1.00  0.00    -0.000 C 
ATOM   9846  C21 POP   132     -19.481  35.991  -0.629  1.00  0.00    -0.005 C 
ATOM   9847  C21 POP   132     -20.363  36.753   0.152  1.00  0.00     0.005 C 
ATOM   9848  C31 POP   132     -20.634  38.636  -7.391  1.00  0.00     0.000 C 
ATOM   9849  C31 POP   132     -21.679  39.040  -6.343  1.00  0.00     0.000 C 
ATOM   9850  C31 POP   132     -21.063  39.486  -4.996  1.00  0.00     0.000 C 
ATOM   9851  C31 POP   132     -20.162  40.738  -5.033  1.00  0.00     0.000 C 
ATOM   9852  C31 POP   132     -19.711  41.261  -3.644  1.00  0.00    -0.000 C 
ATOM   9853  C31 POP   132     -20.822  41.704  -2.686  1.00  0.00    -0.005 C 
ATOM   9854  C31 POP   132     -20.375  42.678  -1.564  1.00  0.00     0.005 C 
ATOM   9855  HN1 POP   132     -16.780  38.562 -17.572  1.00  0.00     0.274 HD
ATOM   9856  HN2 POP   132     -16.070  38.814 -19.079  1.00  0.00     0.274 HD
ATOM   9857  HN3 POP   132     -15.119  38.985 -17.653  1.00  0.00     0.274 HD
ATOM   9858  N   POP   133      40.887  21.488 -20.729  1.00  0.00    -0.063 N 
ATOM   9859  P   POP   133      39.699  19.498 -17.127  1.00  0.00     0.408 P 
ATOM   9860  C1  POP   133      40.705  20.874 -15.160  1.00  0.00     0.216 C 
ATOM   9861  C2  POP   133      40.240  22.114 -14.361  1.00  0.00     0.180 C 
ATOM   9862  C3  POP   133      39.831  23.296 -15.272  1.00  0.00     0.213 C 
ATOM   9863  C11 POP   133      39.371  21.561 -18.760  1.00  0.00     0.225 C 
ATOM   9864  O11 POP   133      39.591  20.189 -15.724  1.00  0.00    -0.287 OA
ATOM   9865  C12 POP   133      39.461  21.305 -20.289  1.00  0.00     0.307 C 
ATOM   9866  O12 POP   133      40.243  20.663 -18.062  1.00  0.00    -0.287 OA
ATOM   9867  C13 POP   133      38.481  22.208 -21.026  1.00  0.00     0.206 C 
ATOM   9868  O13 POP   133      40.769  18.490 -17.119  1.00  0.00    -0.624 OA
ATOM   9869  O13 POP   133      38.933  23.151 -21.726  1.00  0.00    -0.646 OA
ATOM   9870  O13 POP   133      37.265  21.930 -20.911  1.00  0.00    -0.646 OA
ATOM   9871  O14 POP   133      38.368  19.106 -17.606  1.00  0.00    -0.624 OA
ATOM   9872  C21 POP   133      39.366  21.336 -12.368  1.00  0.00     0.259 C 
ATOM   9873  O21 POP   133      39.092  21.808 -13.547  1.00  0.00    -0.312 OA
ATOM   9874  C22 POP   133      38.077  21.240 -11.558  1.00  0.00     0.111 C 
ATOM   9875  O22 POP   133      40.476  21.108 -11.915  1.00  0.00    -0.265 OA
ATOM   9876  C23 POP   133      38.472  21.109 -10.074  1.00  0.00     0.010 C 
ATOM   9877  C24 POP   133      37.245  21.030  -9.163  1.00  0.00     0.000 C 
ATOM   9878  C25 POP   133      37.581  20.704  -7.691  1.00  0.00     0.000 C 
ATOM   9879  C26 POP   133      38.156  19.288  -7.458  1.00  0.00     0.000 C 
ATOM   9880  C27 POP   133      38.656  19.003  -6.025  1.00  0.00     0.004 C 
ATOM   9881  C28 POP   133      39.883  19.842  -5.561  1.00  0.00     0.027 C 
ATOM   9882  C29 POP   133      41.273  19.472  -6.048  1.00  0.00    -0.031 C 
ATOM   9883  C31 POP   133      40.225  25.132 -13.870  1.00  0.00     0.258 C 
ATOM   9884  O31 POP   133      39.329  24.383 -14.486  1.00  0.00    -0.319 OA
ATOM   9885  C32 POP   133      39.462  26.234 -13.155  1.00  0.00     0.111 C 
ATOM   9886  O32 POP   133      41.435  25.014 -13.928  1.00  0.00    -0.265 OA
ATOM   9887  C33 POP   133      38.644  25.723 -11.939  1.00  0.00     0.010 C 
ATOM   9888  C34 POP   133      39.435  25.587 -10.620  1.00  0.00     0.000 C 
ATOM   9889  C35 POP   133      38.631  25.745  -9.309  1.00  0.00     0.000 C 
ATOM   9890  C36 POP   133      39.467  25.321  -8.069  1.00  0.00     0.000 C 
ATOM   9891  C37 POP   133      38.770  25.315  -6.681  1.00  0.00     0.000 C 
ATOM   9892  C38 POP   133      37.445  24.543  -6.635  1.00  0.00     0.000 C 
ATOM   9893  C39 POP   133      36.925  24.226  -5.212  1.00  0.00     0.000 C 
ATOM   9894  C21 POP   133      42.035  20.110  -6.964  1.00  0.00    -0.031 C 
ATOM   9895  C21 POP   133      41.696  21.351  -7.746  1.00  0.00     0.027 C 
ATOM   9896  C21 POP   133      42.412  22.633  -7.285  1.00  0.00     0.004 C 
ATOM   9897  C21 POP   133      41.926  23.179  -5.925  1.00  0.00     0.000 C 
ATOM   9898  C21 POP   133      42.809  22.712  -4.748  1.00  0.00     0.000 C 
ATOM   9899  C21 POP   133      42.513  23.265  -3.321  1.00  0.00     0.000 C 
ATOM   9900  C21 POP   133      41.182  22.876  -2.633  1.00  0.00    -0.000 C 
ATOM   9901  C21 POP   133      40.961  23.507  -1.234  1.00  0.00    -0.005 C 
ATOM   9902  C21 POP   133      41.720  22.815  -0.101  1.00  0.00     0.005 C 
ATOM   9903  C31 POP   133      37.343  22.858  -4.701  1.00  0.00     0.000 C 
ATOM   9904  C31 POP   133      36.797  22.546  -3.309  1.00  0.00     0.000 C 
ATOM   9905  C31 POP   133      37.211  21.129  -2.889  1.00  0.00     0.000 C 
ATOM   9906  C31 POP   133      36.604  20.700  -1.551  1.00  0.00     0.000 C 
ATOM   9907  C31 POP   133      35.075  20.701  -1.583  1.00  0.00    -0.000 C 
ATOM   9908  C31 POP   133      34.511  19.678  -2.572  1.00  0.00    -0.005 C 
ATOM   9909  C31 POP   133      32.999  19.569  -2.485  1.00  0.00     0.005 C 
ATOM   9910  HN1 POP   133      41.083  22.508 -20.840  1.00  0.00     0.275 HD
ATOM   9911  HN2 POP   133      41.477  21.057 -19.985  1.00  0.00     0.275 HD
ATOM   9912  HN3 POP   133      41.005  21.053 -21.663  1.00  0.00     0.275 HD
ATOM   9913  N   POP   134       2.219  46.779 -18.375  1.00  0.00    -0.063 N 
ATOM   9914  P   POP   134       4.683  43.573 -19.567  1.00  0.00     0.408 P 
ATOM   9915  C1  POP   134       5.463  45.171 -17.648  1.00  0.00     0.216 C 
ATOM   9916  C2  POP   134       5.474  45.290 -16.097  1.00  0.00     0.180 C 
ATOM   9917  C3  POP   134       6.129  46.628 -15.661  1.00  0.00     0.213 C 
ATOM   9918  C11 POP   134       2.311  44.371 -19.097  1.00  0.00     0.225 C 
ATOM   9919  O11 POP   134       5.140  43.855 -18.085  1.00  0.00    -0.287 OA
ATOM   9920  C12 POP   134       1.484  45.671 -19.049  1.00  0.00     0.307 C 
ATOM   9921  O12 POP   134       3.558  44.662 -19.741  1.00  0.00    -0.287 OA
ATOM   9922  C13 POP   134       0.113  45.369 -18.444  1.00  0.00     0.206 C 
ATOM   9923  O13 POP   134       5.772  43.896 -20.521  1.00  0.00    -0.624 OA
ATOM   9924  O13 POP   134      -0.178  45.853 -17.320  1.00  0.00    -0.646 OA
ATOM   9925  O13 POP   134      -0.652  44.631 -19.114  1.00  0.00    -0.646 OA
ATOM   9926  O14 POP   134       4.064  42.247 -19.690  1.00  0.00    -0.624 OA
ATOM   9927  C21 POP   134       3.679  44.082 -15.205  1.00  0.00     0.259 C 
ATOM   9928  O21 POP   134       4.146  45.272 -15.553  1.00  0.00    -0.312 OA
ATOM   9929  C22 POP   134       2.448  44.309 -14.322  1.00  0.00     0.111 C 
ATOM   9930  O22 POP   134       4.185  43.005 -15.440  1.00  0.00    -0.265 OA
ATOM   9931  C23 POP   134       2.375  43.341 -13.127  1.00  0.00     0.010 C 
ATOM   9932  C24 POP   134       1.182  43.626 -12.204  1.00  0.00     0.000 C 
ATOM   9933  C25 POP   134       1.311  42.814 -10.902  1.00  0.00     0.000 C 
ATOM   9934  C26 POP   134       0.068  42.800  -9.996  1.00  0.00     0.000 C 
ATOM   9935  C27 POP   134      -0.474  44.227  -9.850  1.00  0.00     0.004 C 
ATOM   9936  C28 POP   134      -0.042  45.060  -8.601  1.00  0.00     0.027 C 
ATOM   9937  C29 POP   134      -0.288  44.571  -7.191  1.00  0.00    -0.031 C 
ATOM   9938  C31 POP   134       5.577  46.900 -13.381  1.00  0.00     0.258 C 
ATOM   9939  O31 POP   134       6.506  46.585 -14.272  1.00  0.00    -0.319 OA
ATOM   9940  C32 POP   134       6.090  46.509 -12.000  1.00  0.00     0.111 C 
ATOM   9941  O32 POP   134       4.485  47.383 -13.617  1.00  0.00    -0.265 OA
ATOM   9942  C33 POP   134       5.235  47.073 -10.851  1.00  0.00     0.010 C 
ATOM   9943  C34 POP   134       5.716  46.703  -9.444  1.00  0.00     0.000 C 
ATOM   9944  C35 POP   134       5.908  45.191  -9.287  1.00  0.00     0.000 C 
ATOM   9945  C36 POP   134       4.883  44.459  -8.446  1.00  0.00     0.000 C 
ATOM   9946  C37 POP   134       5.046  42.924  -8.501  1.00  0.00     0.000 C 
ATOM   9947  C38 POP   134       6.399  42.280  -8.160  1.00  0.00     0.000 C 
ATOM   9948  C39 POP   134       6.670  42.158  -6.665  1.00  0.00     0.000 C 
ATOM   9949  C21 POP   134       0.373  44.137  -6.160  1.00  0.00    -0.031 C 
ATOM   9950  C21 POP   134       1.817  44.085  -6.320  1.00  0.00     0.027 C 
ATOM   9951  C21 POP   134       2.266  45.498  -5.895  1.00  0.00     0.004 C 
ATOM   9952  C21 POP   134       2.099  45.789  -4.385  1.00  0.00     0.000 C 
ATOM   9953  C21 POP   134       1.251  47.020  -4.009  1.00  0.00     0.000 C 
ATOM   9954  C21 POP   134       1.589  47.660  -2.623  1.00  0.00     0.000 C 
ATOM   9955  C21 POP   134       1.467  46.758  -1.363  1.00  0.00    -0.000 C 
ATOM   9956  C21 POP   134       1.831  47.378   0.016  1.00  0.00    -0.005 C 
ATOM   9957  C21 POP   134       1.955  46.291   1.095  1.00  0.00     0.005 C 
ATOM   9958  C31 POP   134       6.511  43.435  -5.911  1.00  0.00     0.000 C 
ATOM   9959  C31 POP   134       7.240  43.352  -4.594  1.00  0.00     0.000 C 
ATOM   9960  C31 POP   134       6.553  42.829  -3.375  1.00  0.00     0.000 C 
ATOM   9961  C31 POP   134       5.194  43.520  -3.271  1.00  0.00     0.000 C 
ATOM   9962  C31 POP   134       5.085  44.696  -2.300  1.00  0.00    -0.000 C 
ATOM   9963  C31 POP   134       5.097  44.357  -0.785  1.00  0.00    -0.005 C 
ATOM   9964  C31 POP   134       4.956  45.643   0.064  1.00  0.00     0.005 C 
ATOM   9965  HN1 POP   134       2.173  46.631 -17.345  1.00  0.00     0.275 HD
ATOM   9966  HN2 POP   134       3.193  46.782 -18.728  1.00  0.00     0.275 HD
ATOM   9967  HN3 POP   134       1.728  47.662 -18.621  1.00  0.00     0.275 HD
ATOM   9968  N   PYP   135      -0.201 -47.031 -22.284  1.00  0.00    -0.077 N 
ATOM   9969  P   PYP   135      -2.782 -44.364 -21.543  1.00  0.00     0.408 P 
ATOM   9970  C1  PYP   135      -2.691 -43.329 -19.193  1.00  0.00     0.216 C 
ATOM   9971  C2  PYP   135      -2.774 -43.759 -17.713  1.00  0.00     0.180 C 
ATOM   9972  C3  PYP   135      -4.239 -44.137 -17.365  1.00  0.00     0.213 C 
ATOM   9973  C11 PYP   135      -0.162 -44.747 -21.194  1.00  0.00     0.208 C 
ATOM   9974  O11 PYP   135      -2.743 -44.502 -19.992  1.00  0.00    -0.287 OA
ATOM   9975  C12 PYP   135      -0.033 -46.256 -21.006  1.00  0.00     0.256 C 
ATOM   9976  O12 PYP   135      -1.278 -44.428 -21.986  1.00  0.00    -0.288 OA
ATOM   9977  O13 PYP   135      -3.337 -45.601 -22.126  1.00  0.00    -0.624 OA
ATOM   9978  O14 PYP   135      -3.295 -43.059 -21.993  1.00  0.00    -0.624 OA
ATOM   9979  C21 PYP   135      -0.645 -44.602 -17.328  1.00  0.00     0.259 C 
ATOM   9980  O21 PYP   135      -1.917 -44.906 -17.480  1.00  0.00    -0.312 OA
ATOM   9981  C22 PYP   135       0.176 -45.877 -17.117  1.00  0.00     0.111 C 
ATOM   9982  O22 PYP   135      -0.172 -43.483 -17.289  1.00  0.00    -0.265 OA
ATOM   9983  C23 PYP   135       1.517 -45.639 -16.361  1.00  0.00     0.010 C 
ATOM   9984  C24 PYP   135       1.410 -45.001 -14.953  1.00  0.00     0.000 C 
ATOM   9985  C25 PYP   135       0.569 -45.798 -13.935  1.00  0.00     0.000 C 
ATOM   9986  C26 PYP   135       0.233 -45.090 -12.589  1.00  0.00     0.000 C 
ATOM   9987  C27 PYP   135      -0.183 -46.100 -11.492  1.00  0.00     0.004 C 
ATOM   9988  C28 PYP   135      -0.148 -45.663 -10.007  1.00  0.00     0.027 C 
ATOM   9989  C29 PYP   135       1.209 -45.231  -9.535  1.00  0.00    -0.031 C 
ATOM   9990  C31 PYP   135      -4.207 -44.150 -15.018  1.00  0.00     0.258 C 
ATOM   9991  O31 PYP   135      -4.329 -44.866 -16.126  1.00  0.00    -0.319 OA
ATOM   9992  C32 PYP   135      -4.400 -45.034 -13.797  1.00  0.00     0.111 C 
ATOM   9993  O32 PYP   135      -4.039 -42.946 -14.954  1.00  0.00    -0.265 OA
ATOM   9994  C33 PYP   135      -3.292 -46.094 -13.617  1.00  0.00     0.010 C 
ATOM   9995  C34 PYP   135      -3.597 -46.962 -12.412  1.00  0.00     0.000 C 
ATOM   9996  C35 PYP   135      -3.800 -46.366 -11.044  1.00  0.00     0.000 C 
ATOM   9997  C36 PYP   135      -4.183 -47.333  -9.951  1.00  0.00     0.000 C 
ATOM   9998  C37 PYP   135      -4.778 -46.420  -8.972  1.00  0.00     0.000 C 
ATOM   9999  C38 PYP   135      -5.688 -47.033  -8.096  1.00  0.00     0.000 C 
ATOM  10000  C39 PYP   135      -6.239 -45.580  -7.270  1.00  0.00     0.000 C 
ATOM  10001  C21 PYP   135       1.742 -45.465  -8.330  1.00  0.00    -0.031 C 
ATOM  10002  C21 PYP   135       1.125 -46.205  -7.166  1.00  0.00     0.027 C 
ATOM  10003  C21 PYP   135       0.835 -45.297  -5.962  1.00  0.00     0.004 C 
ATOM  10004  C21 PYP   135       2.087 -44.910  -5.188  1.00  0.00     0.000 C 
ATOM  10005  C21 PYP   135       1.724 -44.114  -3.931  1.00  0.00    -0.000 C 
ATOM  10006  C21 PYP   135       0.987 -44.973  -2.899  1.00  0.00    -0.005 C 
ATOM  10007  C21 PYP   135       1.120 -44.467  -1.468  1.00  0.00     0.005 C 
ATOM  10008  C31 PYP   135      -5.643 -44.368  -6.259  1.00  0.00     0.000 C 
ATOM  10009  C31 PYP   135      -5.932 -44.476  -4.627  1.00  0.00     0.000 C 
ATOM  10010  C31 PYP   135      -5.174 -43.566  -3.606  1.00  0.00     0.000 C 
ATOM  10011  C31 PYP   135      -3.927 -44.085  -2.816  1.00  0.00     0.000 C 
ATOM  10012  C31 PYP   135      -3.055 -42.953  -2.298  1.00  0.00    -0.000 C 
ATOM  10013  C31 PYP   135      -2.287 -42.266  -3.430  1.00  0.00    -0.005 C 
ATOM  10014  C31 PYP   135      -1.808 -40.881  -3.014  1.00  0.00     0.005 C 
ATOM  10015  HN1 PYP   135      -1.219 -46.978 -22.508  1.00  0.00     0.274 HD
ATOM  10016  HN2 PYP   135       0.345 -46.554 -23.014  1.00  0.00     0.274 HD
ATOM  10017  HN3 PYP   135       0.138 -48.009 -22.211  1.00  0.00     0.274 HD
ATOM  10018  N   POP   136      31.487 -31.992 -22.123  1.00  0.00    -0.077 N 
ATOM  10019  P   POP   136      32.298 -32.319 -17.634  1.00  0.00     0.408 P 
ATOM  10020  C1  POP   136      34.083 -30.347 -17.421  1.00  0.00     0.216 C 
ATOM  10021  C2  POP   136      34.049 -29.697 -16.013  1.00  0.00     0.180 C 
ATOM  10022  C3  POP   136      32.781 -28.832 -15.815  1.00  0.00     0.213 C 
ATOM  10023  C11 POP   136      32.932 -32.451 -20.099  1.00  0.00     0.208 C 
ATOM  10024  O11 POP   136      33.744 -31.725 -17.408  1.00  0.00    -0.287 OA
ATOM  10025  C12 POP   136      32.813 -31.775 -21.463  1.00  0.00     0.256 C 
ATOM  10026  O12 POP   136      32.067 -31.821 -19.157  1.00  0.00    -0.288 OA
ATOM  10027  O13 POP   136      32.405 -33.790 -17.622  1.00  0.00    -0.624 OA
ATOM  10028  O14 POP   136      31.277 -31.687 -16.781  1.00  0.00    -0.624 OA
ATOM  10029  C21 POP   136      35.212 -31.343 -14.894  1.00  0.00     0.259 C 
ATOM  10030  O21 POP   136      34.083 -30.702 -14.999  1.00  0.00    -0.312 OA
ATOM  10031  C22 POP   136      35.015 -32.439 -13.879  1.00  0.00     0.111 C 
ATOM  10032  O22 POP   136      36.292 -31.037 -15.375  1.00  0.00    -0.265 OA
ATOM  10033  C23 POP   136      35.061 -31.876 -12.452  1.00  0.00     0.010 C 
ATOM  10034  C24 POP   136      35.210 -33.060 -11.495  1.00  0.00     0.000 C 
ATOM  10035  C25 POP   136      35.526 -32.656 -10.051  1.00  0.00     0.000 C 
ATOM  10036  C26 POP   136      34.391 -31.886  -9.380  1.00  0.00     0.000 C 
ATOM  10037  C27 POP   136      33.162 -32.792  -9.205  1.00  0.00     0.004 C 
ATOM  10038  C28 POP   136      32.117 -32.146  -8.285  1.00  0.00     0.027 C 
ATOM  10039  C29 POP   136      30.709 -32.679  -8.388  1.00  0.00    -0.031 C 
ATOM  10040  C31 POP   136      32.226 -28.914 -13.550  1.00  0.00     0.258 C 
ATOM  10041  O31 POP   136      32.863 -28.248 -14.496  1.00  0.00    -0.319 OA
ATOM  10042  C32 POP   136      32.704 -28.440 -12.191  1.00  0.00     0.111 C 
ATOM  10043  O32 POP   136      31.373 -29.764 -13.696  1.00  0.00    -0.265 OA
ATOM  10044  C33 POP   136      31.754 -29.036 -11.136  1.00  0.00     0.010 C 
ATOM  10045  C34 POP   136      32.001 -28.578  -9.708  1.00  0.00     0.000 C 
ATOM  10046  C35 POP   136      30.914 -29.047  -8.745  1.00  0.00     0.000 C 
ATOM  10047  C36 POP   136      29.947 -27.970  -8.522  1.00  0.00     0.000 C 
ATOM  10048  C37 POP   136      29.281 -28.117  -7.168  1.00  0.00     0.000 C 
ATOM  10049  C38 POP   136      29.966 -27.953  -5.828  1.00  0.00     0.000 C 
ATOM  10050  C39 POP   136      28.994 -27.601  -4.637  1.00  0.00     0.000 C 
ATOM  10051  C21 POP   136      30.137 -33.578  -7.570  1.00  0.00    -0.031 C 
ATOM  10052  C21 POP   136      30.782 -34.247  -6.381  1.00  0.00     0.027 C 
ATOM  10053  C21 POP   136      30.776 -33.423  -5.067  1.00  0.00     0.004 C 
ATOM  10054  C21 POP   136      29.408 -32.826  -4.700  1.00  0.00     0.000 C 
ATOM  10055  C21 POP   136      29.322 -32.035  -3.383  1.00  0.00     0.000 C 
ATOM  10056  C21 POP   136      29.728 -32.726  -2.099  1.00  0.00     0.000 C 
ATOM  10057  C21 POP   136      29.686 -31.831  -0.846  1.00  0.00    -0.000 C 
ATOM  10058  C21 POP   136      30.619 -32.389   0.218  1.00  0.00    -0.005 C 
ATOM  10059  C21 POP   136      30.587 -33.912   0.334  1.00  0.00     0.005 C 
ATOM  10060  C31 POP   136      29.644 -27.497  -3.225  1.00  0.00     0.000 C 
ATOM  10061  C31 POP   136      28.885 -27.317  -1.900  1.00  0.00     0.000 C 
ATOM  10062  C31 POP   136      29.758 -27.730  -0.700  1.00  0.00     0.000 C 
ATOM  10063  C31 POP   136      29.113 -27.892   0.649  1.00  0.00     0.000 C 
ATOM  10064  C31 POP   136      30.044 -28.709   1.542  1.00  0.00    -0.000 C 
ATOM  10065  C31 POP   136      29.336 -29.163   2.818  1.00  0.00    -0.005 C 
ATOM  10066  C31 POP   136      28.158 -30.114   2.573  1.00  0.00     0.005 C 
ATOM  10067  HN1 POP   136      31.428 -32.988 -22.412  1.00  0.00     0.274 HD
ATOM  10068  HN2 POP   136      30.708 -31.812 -21.452  1.00  0.00     0.274 HD
ATOM  10069  HN3 POP   136      31.452 -31.346 -22.936  1.00  0.00     0.274 HD
ATOM  10070  P   YOP   137      23.674 -38.901 -19.284  1.00  0.00     0.406 P 
ATOM  10071  C1  YOP   137      25.552 -40.337 -18.096  1.00  0.00     0.216 C 
ATOM  10072  C2  YOP   137      25.174 -40.852 -16.666  1.00  0.00     0.180 C 
ATOM  10073  C3  YOP   137      25.826 -39.979 -15.551  1.00  0.00     0.213 C 
ATOM  10074  O11 YOP   137      24.431 -40.227 -18.970  1.00  0.00    -0.287 OA
ATOM  10075  O12 YOP   137      22.883 -38.512 -17.971  1.00  0.00    -0.300 OA
ATOM  10076  O13 YOP   137      22.651 -39.095 -20.332  1.00  0.00    -0.624 OA
ATOM  10077  O14 YOP   137      24.626 -37.798 -19.462  1.00  0.00    -0.624 OA
ATOM  10078  C21 YOP   137      23.097 -41.885 -16.937  1.00  0.00     0.259 C 
ATOM  10079  O21 YOP   137      23.757 -40.869 -16.406  1.00  0.00    -0.312 OA
ATOM  10080  C22 YOP   137      21.679 -41.947 -16.342  1.00  0.00     0.111 C 
ATOM  10081  O22 YOP   137      23.567 -42.764 -17.635  1.00  0.00    -0.265 OA
ATOM  10082  C23 YOP   137      21.727 -42.394 -14.852  1.00  0.00     0.010 C 
ATOM  10083  C24 YOP   137      22.137 -41.271 -13.859  1.00  0.00     0.000 C 
ATOM  10084  C25 YOP   137      22.536 -41.693 -12.424  1.00  0.00     0.000 C 
ATOM  10085  C26 YOP   137      23.447 -40.680 -11.714  1.00  0.00     0.000 C 
ATOM  10086  C27 YOP   137      23.886 -41.087 -10.300  1.00  0.00     0.004 C 
ATOM  10087  C28 YOP   137      24.883 -40.093  -9.738  1.00  0.00     0.027 C 
ATOM  10088  C29 YOP   137      26.210 -40.073 -10.367  1.00  0.00    -0.031 C 
ATOM  10089  C31 YOP   137      25.038 -38.065 -14.409  1.00  0.00     0.258 C 
ATOM  10090  O31 YOP   137      25.305 -38.630 -15.578  1.00  0.00    -0.319 OA
ATOM  10091  C32 YOP   137      24.357 -36.728 -14.667  1.00  0.00     0.111 C 
ATOM  10092  O32 YOP   137      25.324 -38.507 -13.312  1.00  0.00    -0.265 OA
ATOM  10093  C33 YOP   137      23.261 -36.413 -13.626  1.00  0.00     0.010 C 
ATOM  10094  C34 YOP   137      22.057 -37.352 -13.803  1.00  0.00     0.000 C 
ATOM  10095  C35 YOP   137      20.805 -36.948 -12.997  1.00  0.00     0.000 C 
ATOM  10096  C36 YOP   137      21.008 -37.065 -11.474  1.00  0.00     0.000 C 
ATOM  10097  C37 YOP   137      19.838 -37.544 -10.586  1.00  0.00     0.004 C 
ATOM  10098  C38 YOP   137      20.177 -37.301  -9.092  1.00  0.00     0.027 C 
ATOM  10099  C39 YOP   137      21.182 -38.291  -8.547  1.00  0.00    -0.031 C 
ATOM  10100  C21 YOP   137      27.266 -40.080  -9.613  1.00  0.00    -0.031 C 
ATOM  10101  C21 YOP   137      27.550 -40.125  -8.147  1.00  0.00     0.027 C 
ATOM  10102  C21 YOP   137      27.646 -38.702  -7.675  1.00  0.00     0.004 C 
ATOM  10103  C21 YOP   137      27.455 -38.699  -6.173  1.00  0.00     0.000 C 
ATOM  10104  C21 YOP   137      28.640 -39.325  -5.423  1.00  0.00     0.000 C 
ATOM  10105  C21 YOP   137      28.373 -39.440  -3.910  1.00  0.00     0.000 C 
ATOM  10106  C21 YOP   137      27.373 -40.543  -3.485  1.00  0.00    -0.000 C 
ATOM  10107  C21 YOP   137      27.282 -40.800  -1.964  1.00  0.00    -0.005 C 
ATOM  10108  C21 YOP   137      26.937 -39.568  -1.119  1.00  0.00     0.005 C 
ATOM  10109  C31 YOP   137      21.087 -39.000  -7.401  1.00  0.00    -0.031 C 
ATOM  10110  C31 YOP   137      19.930 -38.932  -6.421  1.00  0.00     0.027 C 
ATOM  10111  C31 YOP   137      20.299 -38.703  -4.933  1.00  0.00     0.004 C 
ATOM  10112  C31 YOP   137      21.107 -39.832  -4.269  1.00  0.00     0.000 C 
ATOM  10113  C31 YOP   137      21.511 -39.516  -2.810  1.00  0.00    -0.000 C 
ATOM  10114  C31 YOP   137      22.243 -40.696  -2.148  1.00  0.00    -0.005 C 
ATOM  10115  C31 YOP   137      22.918 -40.488  -0.777  1.00  0.00     0.005 C 
ATOM  10116  H12 YOP   137      23.460 -38.027 -17.375  1.00  0.00     0.223 HD
ATOM  10117  N   POP   138      31.993  29.836 -19.552  1.00  0.00    -0.063 N 
ATOM  10118  P   POP   138      36.590  30.784 -17.716  1.00  0.00     0.408 P 
ATOM  10119  C1  POP   138      36.051  33.206 -16.763  1.00  0.00     0.216 C 
ATOM  10120  C2  POP   138      35.666  33.744 -15.346  1.00  0.00     0.180 C 
ATOM  10121  C3  POP   138      34.152  33.595 -15.038  1.00  0.00     0.213 C 
ATOM  10122  C11 POP   138      34.174  30.339 -18.592  1.00  0.00     0.225 C 
ATOM  10123  O11 POP   138      35.863  31.801 -16.770  1.00  0.00    -0.287 OA
ATOM  10124  C12 POP   138      33.425  30.046 -19.918  1.00  0.00     0.307 C 
ATOM  10125  O12 POP   138      35.495  30.758 -18.849  1.00  0.00    -0.287 OA
ATOM  10126  C13 POP   138      34.034  28.850 -20.667  1.00  0.00     0.206 C 
ATOM  10127  O13 POP   138      37.835  31.369 -18.238  1.00  0.00    -0.624 OA
ATOM  10128  O13 POP   138      33.270  27.917 -21.030  1.00  0.00    -0.646 OA
ATOM  10129  O13 POP   138      35.257  28.886 -20.935  1.00  0.00    -0.646 OA
ATOM  10130  O14 POP   138      36.635  29.512 -16.954  1.00  0.00    -0.624 OA
ATOM  10131  C21 POP   138      37.612  33.082 -14.356  1.00  0.00     0.259 C 
ATOM  10132  O21 POP   138      36.320  33.059 -14.268  1.00  0.00    -0.312 OA
ATOM  10133  C22 POP   138      38.164  32.172 -13.260  1.00  0.00     0.111 C 
ATOM  10134  O22 POP   138      38.254  33.779 -15.118  1.00  0.00    -0.265 OA
ATOM  10135  C23 POP   138      38.249  30.738 -13.680  1.00  0.00     0.010 C 
ATOM  10136  C24 POP   138      39.406  30.011 -12.964  1.00  0.00     0.000 C 
ATOM  10137  C25 POP   138      39.216  29.884 -11.443  1.00  0.00     0.000 C 
ATOM  10138  C26 POP   138      37.871  29.266 -10.995  1.00  0.00     0.000 C 
ATOM  10139  C27 POP   138      37.640  29.213  -9.476  1.00  0.00     0.004 C 
ATOM  10140  C28 POP   138      37.352  30.614  -8.948  1.00  0.00     0.027 C 
ATOM  10141  C29 POP   138      36.075  31.243  -9.435  1.00  0.00    -0.031 C 
ATOM  10142  C31 POP   138      33.512  31.421 -14.334  1.00  0.00     0.258 C 
ATOM  10143  O31 POP   138      33.640  32.281 -15.328  1.00  0.00    -0.319 OA
ATOM  10144  C32 POP   138      33.147  30.059 -14.928  1.00  0.00     0.111 C 
ATOM  10145  O32 POP   138      33.591  31.672 -13.146  1.00  0.00    -0.265 OA
ATOM  10146  C33 POP   138      34.230  28.985 -14.656  1.00  0.00     0.010 C 
ATOM  10147  C34 POP   138      33.783  27.898 -13.656  1.00  0.00     0.000 C 
ATOM  10148  C35 POP   138      33.886  28.386 -12.190  1.00  0.00     0.000 C 
ATOM  10149  C36 POP   138      33.724  27.337 -11.074  1.00  0.00     0.000 C 
ATOM  10150  C37 POP   138      33.644  27.915  -9.645  1.00  0.00     0.000 C 
ATOM  10151  C38 POP   138      33.264  26.872  -8.588  1.00  0.00     0.000 C 
ATOM  10152  C39 POP   138      33.349  27.342  -7.124  1.00  0.00     0.000 C 
ATOM  10153  C21 POP   138      34.952  31.392  -8.720  1.00  0.00    -0.031 C 
ATOM  10154  C21 POP   138      34.817  30.931  -7.291  1.00  0.00     0.027 C 
ATOM  10155  C21 POP   138      35.360  31.916  -6.228  1.00  0.00     0.004 C 
ATOM  10156  C21 POP   138      34.481  33.147  -5.974  1.00  0.00     0.000 C 
ATOM  10157  C21 POP   138      33.046  32.835  -5.538  1.00  0.00     0.000 C 
ATOM  10158  C21 POP   138      32.870  31.930  -4.294  1.00  0.00     0.000 C 
ATOM  10159  C21 POP   138      33.620  32.282  -2.981  1.00  0.00    -0.000 C 
ATOM  10160  C21 POP   138      33.054  31.514  -1.767  1.00  0.00    -0.005 C 
ATOM  10161  C21 POP   138      31.771  32.146  -1.215  1.00  0.00     0.005 C 
ATOM  10162  C31 POP   138      34.806  27.287  -6.694  1.00  0.00     0.000 C 
ATOM  10163  C31 POP   138      35.103  27.942  -5.354  1.00  0.00     0.000 C 
ATOM  10164  C31 POP   138      36.543  27.637  -4.971  1.00  0.00     0.000 C 
ATOM  10165  C31 POP   138      37.071  28.457  -3.812  1.00  0.00     0.000 C 
ATOM  10166  C31 POP   138      36.266  28.186  -2.546  1.00  0.00    -0.000 C 
ATOM  10167  C31 POP   138      36.946  28.579  -1.238  1.00  0.00    -0.005 C 
ATOM  10168  C31 POP   138      37.355  30.052  -1.212  1.00  0.00     0.005 C 
ATOM  10169  HN1 POP   138      31.983  28.873 -19.154  1.00  0.00     0.275 HD
ATOM  10170  HN2 POP   138      31.729  30.526 -18.831  1.00  0.00     0.275 HD
ATOM  10171  HN3 POP   138      31.348  29.843 -20.364  1.00  0.00     0.275 HD
ATOM  10172  N   POP   139     -26.794  38.124 -19.479  1.00  0.00    -0.063 N 
ATOM  10173  P   POP   139     -30.508  37.323 -17.341  1.00  0.00     0.408 P 
ATOM  10174  C1  POP   139     -28.214  36.249 -16.484  1.00  0.00     0.216 C 
ATOM  10175  C2  POP   139     -27.295  36.248 -15.220  1.00  0.00     0.180 C 
ATOM  10176  C3  POP   139     -26.739  37.685 -14.959  1.00  0.00     0.213 C 
ATOM  10177  C11 POP   139     -29.170  38.779 -19.138  1.00  0.00     0.225 C 
ATOM  10178  O11 POP   139     -29.490  36.826 -16.234  1.00  0.00    -0.287 OA
ATOM  10179  C12 POP   139     -28.024  38.613 -20.177  1.00  0.00     0.307 C 
ATOM  10180  O12 POP   139     -29.516  37.512 -18.580  1.00  0.00    -0.287 OA
ATOM  10181  C13 POP   139     -27.813  39.876 -21.040  1.00  0.00     0.206 C 
ATOM  10182  O13 POP   139     -31.477  36.261 -17.672  1.00  0.00    -0.624 OA
ATOM  10183  O13 POP   139     -26.638  40.229 -21.340  1.00  0.00    -0.646 OA
ATOM  10184  O13 POP   139     -28.842  40.453 -21.460  1.00  0.00    -0.646 OA
ATOM  10185  O14 POP   139     -31.037  38.622 -16.897  1.00  0.00    -0.624 OA
ATOM  10186  C21 POP   139     -28.070  34.440 -13.943  1.00  0.00     0.259 C 
ATOM  10187  O21 POP   139     -27.972  35.767 -14.037  1.00  0.00    -0.312 OA
ATOM  10188  C22 POP   139     -28.862  34.056 -12.681  1.00  0.00     0.111 C 
ATOM  10189  O22 POP   139     -27.533  33.645 -14.692  1.00  0.00    -0.265 OA
ATOM  10190  C23 POP   139     -28.053  34.200 -11.360  1.00  0.00     0.010 C 
ATOM  10191  C24 POP   139     -27.853  35.654 -10.892  1.00  0.00     0.000 C 
ATOM  10192  C25 POP   139     -29.125  36.506 -10.826  1.00  0.00     0.000 C 
ATOM  10193  C26 POP   139     -30.182  35.888  -9.909  1.00  0.00     0.000 C 
ATOM  10194  C27 POP   139     -31.367  36.832  -9.734  1.00  0.00     0.004 C 
ATOM  10195  C28 POP   139     -32.457  36.257  -8.804  1.00  0.00     0.027 C 
ATOM  10196  C29 POP   139     -33.412  37.309  -8.312  1.00  0.00    -0.031 C 
ATOM  10197  C31 POP   139     -27.814  39.211 -13.508  1.00  0.00     0.258 C 
ATOM  10198  O31 POP   139     -27.773  38.633 -14.684  1.00  0.00    -0.319 OA
ATOM  10199  C32 POP   139     -29.144  39.925 -13.437  1.00  0.00     0.111 C 
ATOM  10200  O32 POP   139     -26.952  39.189 -12.645  1.00  0.00    -0.265 OA
ATOM  10201  C33 POP   139     -29.294  40.622 -12.131  1.00  0.00     0.010 C 
ATOM  10202  C34 POP   139     -28.540  41.871 -12.108  1.00  0.00     0.000 C 
ATOM  10203  C35 POP   139     -29.112  42.412 -10.852  1.00  0.00     0.000 C 
ATOM  10204  C36 POP   139     -28.417  41.620  -9.638  1.00  0.00     0.000 C 
ATOM  10205  C37 POP   139     -26.831  41.412  -9.380  1.00  0.00     0.000 C 
ATOM  10206  C38 POP   139     -26.378  41.407  -7.890  1.00  0.00     0.000 C 
ATOM  10207  C39 POP   139     -26.081  39.967  -7.611  1.00  0.00     0.000 C 
ATOM  10208  C21 POP   139     -33.059  38.254  -7.427  1.00  0.00    -0.031 C 
ATOM  10209  C21 POP   139     -31.692  38.415  -6.796  1.00  0.00     0.027 C 
ATOM  10210  C21 POP   139     -31.799  39.238  -5.504  1.00  0.00     0.004 C 
ATOM  10211  C21 POP   139     -32.276  38.376  -4.323  1.00  0.00     0.000 C 
ATOM  10212  C21 POP   139     -32.411  39.115  -2.983  1.00  0.00     0.000 C 
ATOM  10213  C21 POP   139     -31.074  39.219  -2.223  1.00  0.00     0.000 C 
ATOM  10214  C21 POP   139     -30.451  40.610  -2.396  1.00  0.00    -0.000 C 
ATOM  10215  C21 POP   139     -29.028  40.768  -1.843  1.00  0.00    -0.005 C 
ATOM  10216  C21 POP   139     -28.873  40.439  -0.362  1.00  0.00     0.005 C 
ATOM  10217  C31 POP   139     -27.366  39.144  -7.691  1.00  0.00     0.000 C 
ATOM  10218  C31 POP   139     -27.055  37.659  -7.822  1.00  0.00     0.000 C 
ATOM  10219  C31 POP   139     -26.964  36.862  -6.506  1.00  0.00     0.000 C 
ATOM  10220  C31 POP   139     -26.003  37.411  -5.433  1.00  0.00     0.000 C 
ATOM  10221  C31 POP   139     -25.967  36.535  -4.170  1.00  0.00    -0.000 C 
ATOM  10222  C31 POP   139     -25.081  37.053  -3.038  1.00  0.00    -0.005 C 
ATOM  10223  C31 POP   139     -25.512  38.307  -2.272  1.00  0.00     0.005 C 
ATOM  10224  HN1 POP   139     -27.038  37.223 -19.011  1.00  0.00     0.275 HD
ATOM  10225  HN2 POP   139     -26.035  38.031 -20.183  1.00  0.00     0.275 HD
ATOM  10226  HN3 POP   139     -26.539  38.856 -18.782  1.00  0.00     0.275 HD
ATOM  10227  N   POP   140     -46.711  19.983 -19.386  1.00  0.00    -0.063 N 
ATOM  10228  P   POP   140     -43.690  16.553 -17.388  1.00  0.00     0.408 P 
ATOM  10229  C1  POP   140     -42.538  18.883 -17.165  1.00  0.00     0.216 C 
ATOM  10230  C2  POP   140     -42.567  20.230 -16.380  1.00  0.00     0.180 C 
ATOM  10231  C3  POP   140     -43.890  21.025 -16.629  1.00  0.00     0.213 C 
ATOM  10232  C11 POP   140     -45.591  18.011 -18.540  1.00  0.00     0.225 C 
ATOM  10233  O11 POP   140     -43.462  17.935 -16.627  1.00  0.00    -0.287 OA
ATOM  10234  C12 POP   140     -45.611  19.044 -19.713  1.00  0.00     0.307 C 
ATOM  10235  O12 POP   140     -44.528  17.077 -18.629  1.00  0.00    -0.287 OA
ATOM  10236  C13 POP   140     -45.873  18.403 -21.092  1.00  0.00     0.206 C 
ATOM  10237  O13 POP   140     -42.379  16.046 -17.853  1.00  0.00    -0.624 OA
ATOM  10238  O13 POP   140     -47.019  18.584 -21.602  1.00  0.00    -0.646 OA
ATOM  10239  O13 POP   140     -44.915  17.849 -21.684  1.00  0.00    -0.646 OA
ATOM  10240  O14 POP   140     -44.528  15.694 -16.528  1.00  0.00    -0.624 OA
ATOM  10241  C21 POP   140     -41.276  19.671 -14.489  1.00  0.00     0.259 C 
ATOM  10242  O21 POP   140     -42.426  20.079 -14.967  1.00  0.00    -0.312 OA
ATOM  10243  C22 POP   140     -41.269  19.992 -12.994  1.00  0.00     0.111 C 
ATOM  10244  O22 POP   140     -40.303  19.292 -15.126  1.00  0.00    -0.265 OA
ATOM  10245  C23 POP   140     -42.214  19.143 -12.128  1.00  0.00     0.010 C 
ATOM  10246  C24 POP   140     -42.363  19.853 -10.776  1.00  0.00     0.000 C 
ATOM  10247  C25 POP   140     -43.335  19.168  -9.816  1.00  0.00     0.000 C 
ATOM  10248  C26 POP   140     -43.595  19.967  -8.523  1.00  0.00     0.000 C 
ATOM  10249  C27 POP   140     -42.319  20.013  -7.661  1.00  0.00     0.004 C 
ATOM  10250  C28 POP   140     -42.517  20.390  -6.188  1.00  0.00     0.027 C 
ATOM  10251  C29 POP   140     -42.822  21.857  -6.130  1.00  0.00    -0.031 C 
ATOM  10252  C31 POP   140     -45.490  20.435 -14.960  1.00  0.00     0.258 C 
ATOM  10253  O31 POP   140     -45.091  20.306 -16.241  1.00  0.00    -0.319 OA
ATOM  10254  C32 POP   140     -46.848  19.713 -14.794  1.00  0.00     0.111 C 
ATOM  10255  O32 POP   140     -44.985  21.175 -14.146  1.00  0.00    -0.265 OA
ATOM  10256  C33 POP   140     -47.256  19.257 -13.352  1.00  0.00     0.010 C 
ATOM  10257  C34 POP   140     -46.569  17.952 -12.884  1.00  0.00     0.000 C 
ATOM  10258  C35 POP   140     -47.333  17.115 -11.821  1.00  0.00     0.000 C 
ATOM  10259  C36 POP   140     -47.194  17.712 -10.410  1.00  0.00     0.000 C 
ATOM  10260  C37 POP   140     -47.621  16.820  -9.227  1.00  0.00     0.000 C 
ATOM  10261  C38 POP   140     -47.001  17.325  -7.901  1.00  0.00     0.000 C 
ATOM  10262  C39 POP   140     -47.040  16.322  -6.732  1.00  0.00     0.000 C 
ATOM  10263  C21 POP   140     -43.853  22.431  -5.510  1.00  0.00    -0.031 C 
ATOM  10264  C21 POP   140     -44.973  21.834  -4.717  1.00  0.00     0.027 C 
ATOM  10265  C21 POP   140     -44.638  21.802  -3.228  1.00  0.00     0.004 C 
ATOM  10266  C21 POP   140     -43.801  20.578  -2.895  1.00  0.00     0.000 C 
ATOM  10267  C21 POP   140     -43.696  20.465  -1.386  1.00  0.00     0.000 C 
ATOM  10268  C21 POP   140     -44.554  19.339  -0.825  1.00  0.00     0.000 C 
ATOM  10269  C21 POP   140     -45.963  19.718  -0.407  1.00  0.00    -0.000 C 
ATOM  10270  C21 POP   140     -45.810  20.364   0.927  1.00  0.00    -0.005 C 
ATOM  10271  C21 POP   140     -45.455  19.289   1.963  1.00  0.00     0.005 C 
ATOM  10272  C31 POP   140     -46.007  16.589  -5.609  1.00  0.00     0.000 C 
ATOM  10273  C31 POP   140     -44.575  16.096  -5.893  1.00  0.00     0.000 C 
ATOM  10274  C31 POP   140     -43.545  16.410  -4.781  1.00  0.00     0.000 C 
ATOM  10275  C31 POP   140     -43.564  15.413  -3.593  1.00  0.00     0.000 C 
ATOM  10276  C31 POP   140     -43.080  16.012  -2.252  1.00  0.00    -0.000 C 
ATOM  10277  C31 POP   140     -43.599  15.313  -0.978  1.00  0.00    -0.005 C 
ATOM  10278  C31 POP   140     -45.073  15.564  -0.605  1.00  0.00     0.005 C 
ATOM  10279  HN1 POP   140     -46.557  20.891 -19.875  1.00  0.00     0.275 HD
ATOM  10280  HN2 POP   140     -47.531  19.478 -19.806  1.00  0.00     0.275 HD
ATOM  10281  HN3 POP   140     -46.754  20.101 -18.358  1.00  0.00     0.275 HD
ATOM  10282  N   POP   141      47.855   4.671 -19.734  1.00  0.00    -0.063 N 
ATOM  10283  P   POP   141      46.944   0.499 -19.182  1.00  0.00     0.408 P 
ATOM  10284  C1  POP   141      46.001   1.775 -17.109  1.00  0.00     0.216 C 
ATOM  10285  C2  POP   141      45.636   1.520 -15.614  1.00  0.00     0.180 C 
ATOM  10286  C3  POP   141      44.910   0.159 -15.505  1.00  0.00     0.213 C 
ATOM  10287  C11 POP   141      48.784   2.378 -19.507  1.00  0.00     0.225 C 
ATOM  10288  O11 POP   141      46.945   0.819 -17.616  1.00  0.00    -0.287 OA
ATOM  10289  C12 POP   141      48.646   3.781 -18.844  1.00  0.00     0.307 C 
ATOM  10290  O12 POP   141      47.470   1.875 -19.800  1.00  0.00    -0.287 OA
ATOM  10291  C13 POP   141      49.990   4.476 -18.529  1.00  0.00     0.206 C 
ATOM  10292  O13 POP   141      47.960  -0.495 -19.546  1.00  0.00    -0.624 OA
ATOM  10293  O13 POP   141      50.330   5.497 -19.217  1.00  0.00    -0.646 OA
ATOM  10294  O13 POP   141      50.636   4.018 -17.562  1.00  0.00    -0.646 OA
ATOM  10295  O14 POP   141      45.541   0.371 -19.649  1.00  0.00    -0.624 OA
ATOM  10296  C21 POP   141      47.426   2.646 -14.595  1.00  0.00     0.259 C 
ATOM  10297  O21 POP   141      46.765   1.521 -14.723  1.00  0.00    -0.312 OA
ATOM  10298  C22 POP   141      48.669   2.393 -13.728  1.00  0.00     0.111 C 
ATOM  10299  O22 POP   141      47.098   3.728 -15.054  1.00  0.00    -0.265 OA
ATOM  10300  C23 POP   141      48.380   1.869 -12.298  1.00  0.00     0.010 C 
ATOM  10301  C24 POP   141      49.234   0.622 -12.045  1.00  0.00     0.000 C 
ATOM  10302  C25 POP   141      48.885  -0.132 -10.776  1.00  0.00     0.000 C 
ATOM  10303  C26 POP   141      49.874  -1.278 -10.542  1.00  0.00     0.000 C 
ATOM  10304  C27 POP   141      49.432  -2.096  -9.327  1.00  0.00     0.004 C 
ATOM  10305  C28 POP   141      49.421  -1.302  -8.012  1.00  0.00     0.027 C 
ATOM  10306  C29 POP   141      50.812  -0.853  -7.653  1.00  0.00    -0.031 C 
ATOM  10307  C31 POP   141      45.508  -0.998 -13.550  1.00  0.00     0.258 C 
ATOM  10308  O31 POP   141      44.648  -0.189 -14.138  1.00  0.00    -0.319 OA
ATOM  10309  C32 POP   141      44.904  -1.424 -12.210  1.00  0.00     0.111 C 
ATOM  10310  O32 POP   141      46.532  -1.453 -14.018  1.00  0.00    -0.265 OA
ATOM  10311  C33 POP   141      44.198  -0.311 -11.399  1.00  0.00     0.010 C 
ATOM  10312  C34 POP   141      43.959  -0.749  -9.938  1.00  0.00     0.000 C 
ATOM  10313  C35 POP   141      45.199  -0.628  -9.023  1.00  0.00     0.000 C 
ATOM  10314  C36 POP   141      44.875  -0.486  -7.518  1.00  0.00     0.000 C 
ATOM  10315  C37 POP   141      45.411  -1.606  -6.609  1.00  0.00     0.000 C 
ATOM  10316  C38 POP   141      45.003  -1.335  -5.149  1.00  0.00     0.000 C 
ATOM  10317  C39 POP   141      45.813  -2.107  -4.095  1.00  0.00     0.000 C 
ATOM  10318  C21 POP   141      51.321   0.380  -7.470  1.00  0.00    -0.031 C 
ATOM  10319  C21 POP   141      50.681   1.747  -7.556  1.00  0.00     0.027 C 
ATOM  10320  C21 POP   141      49.189   1.952  -7.211  1.00  0.00     0.004 C 
ATOM  10321  C21 POP   141      48.912   3.408  -6.826  1.00  0.00     0.000 C 
ATOM  10322  C21 POP   141      47.423   3.645  -6.550  1.00  0.00     0.000 C 
ATOM  10323  C21 POP   141      47.138   4.397  -5.251  1.00  0.00     0.000 C 
ATOM  10324  C21 POP   141      47.248   3.506  -4.014  1.00  0.00    -0.000 C 
ATOM  10325  C21 POP   141      47.067   4.298  -2.703  1.00  0.00    -0.005 C 
ATOM  10326  C21 POP   141      45.830   5.199  -2.517  1.00  0.00     0.005 C 
ATOM  10327  C31 POP   141      47.259  -1.653  -3.828  1.00  0.00     0.000 C 
ATOM  10328  C31 POP   141      47.378  -0.285  -3.126  1.00  0.00     0.000 C 
ATOM  10329  C31 POP   141      47.903  -0.291  -1.696  1.00  0.00     0.000 C 
ATOM  10330  C31 POP   141      46.959  -0.952  -0.673  1.00  0.00     0.000 C 
ATOM  10331  C31 POP   141      45.704  -0.262  -0.332  1.00  0.00    -0.000 C 
ATOM  10332  C31 POP   141      45.940   0.931   0.589  1.00  0.00    -0.005 C 
ATOM  10333  C31 POP   141      44.563   1.492   0.818  1.00  0.00     0.005 C 
ATOM  10334  HN1 POP   141      46.884   4.322 -19.850  1.00  0.00     0.275 HD
ATOM  10335  HN2 POP   141      47.912   5.596 -19.259  1.00  0.00     0.275 HD
ATOM  10336  HN3 POP   141      48.358   4.707 -20.633  1.00  0.00     0.275 HD
ATOM  10337  N   POP   142      40.680 -26.110 -21.410  1.00  0.00    -0.063 N 
ATOM  10338  P   POP   142      39.894 -24.300 -17.506  1.00  0.00     0.408 P 
ATOM  10339  C1  POP   142      38.648 -26.507 -16.838  1.00  0.00     0.216 C 
ATOM  10340  C2  POP   142      37.819 -26.552 -15.521  1.00  0.00     0.180 C 
ATOM  10341  C3  POP   142      38.517 -27.452 -14.475  1.00  0.00     0.213 C 
ATOM  10342  C11 POP   142      41.070 -26.048 -18.962  1.00  0.00     0.225 C 
ATOM  10343  O11 POP   142      39.785 -25.656 -16.697  1.00  0.00    -0.287 OA
ATOM  10344  C12 POP   142      41.721 -26.180 -20.328  1.00  0.00     0.307 C 
ATOM  10345  O12 POP   142      40.377 -24.812 -18.937  1.00  0.00    -0.287 OA
ATOM  10346  C13 POP   142      42.501 -27.485 -20.257  1.00  0.00     0.206 C 
ATOM  10347  O13 POP   142      38.556 -23.747 -17.700  1.00  0.00    -0.624 OA
ATOM  10348  O13 POP   142      42.077 -28.480 -20.898  1.00  0.00    -0.646 OA
ATOM  10349  O13 POP   142      43.507 -27.469 -19.517  1.00  0.00    -0.646 OA
ATOM  10350  O14 POP   142      40.930 -23.439 -16.904  1.00  0.00    -0.624 OA
ATOM  10351  C21 POP   142      36.822 -24.463 -15.496  1.00  0.00     0.259 C 
ATOM  10352  O21 POP   142      37.694 -25.252 -14.905  1.00  0.00    -0.312 OA
ATOM  10353  C22 POP   142      36.829 -23.059 -14.860  1.00  0.00     0.111 C 
ATOM  10354  O22 POP   142      36.018 -24.833 -16.336  1.00  0.00    -0.265 OA
ATOM  10355  C23 POP   142      38.140 -22.589 -14.191  1.00  0.00     0.010 C 
ATOM  10356  C24 POP   142      38.251 -22.982 -12.704  1.00  0.00     0.000 C 
ATOM  10357  C25 POP   142      39.530 -22.444 -12.035  1.00  0.00     0.000 C 
ATOM  10358  C26 POP   142      40.834 -22.942 -12.698  1.00  0.00     0.000 C 
ATOM  10359  C27 POP   142      41.143 -24.439 -12.502  1.00  0.00     0.004 C 
ATOM  10360  C28 POP   142      41.168 -24.945 -11.044  1.00  0.00     0.027 C 
ATOM  10361  C29 POP   142      42.235 -24.326 -10.162  1.00  0.00    -0.031 C 
ATOM  10362  C31 POP   142      37.742 -27.520 -12.246  1.00  0.00     0.258 C 
ATOM  10363  O31 POP   142      37.578 -27.947 -13.489  1.00  0.00    -0.319 OA
ATOM  10364  C32 POP   142      36.660 -28.101 -11.334  1.00  0.00     0.111 C 
ATOM  10365  O32 POP   142      38.605 -26.771 -11.841  1.00  0.00    -0.265 OA
ATOM  10366  C33 POP   142      36.355 -27.124 -10.176  1.00  0.00     0.010 C 
ATOM  10367  C34 POP   142      35.249 -27.664  -9.274  1.00  0.00     0.000 C 
ATOM  10368  C35 POP   142      35.395 -27.308  -7.791  1.00  0.00     0.000 C 
ATOM  10369  C36 POP   142      36.619 -27.853  -7.110  1.00  0.00     0.000 C 
ATOM  10370  C37 POP   142      36.763 -29.324  -7.307  1.00  0.00     0.000 C 
ATOM  10371  C38 POP   142      37.959 -29.625  -6.481  1.00  0.00     0.000 C 
ATOM  10372  C39 POP   142      37.659 -29.459  -4.994  1.00  0.00     0.000 C 
ATOM  10373  C21 POP   142      42.930 -24.973  -9.204  1.00  0.00    -0.031 C 
ATOM  10374  C21 POP   142      42.771 -26.423  -8.835  1.00  0.00     0.027 C 
ATOM  10375  C21 POP   142      42.049 -26.621  -7.497  1.00  0.00     0.004 C 
ATOM  10376  C21 POP   142      42.751 -26.038  -6.271  1.00  0.00     0.000 C 
ATOM  10377  C21 POP   142      42.112 -26.535  -4.974  1.00  0.00     0.000 C 
ATOM  10378  C21 POP   142      40.812 -25.805  -4.606  1.00  0.00     0.000 C 
ATOM  10379  C21 POP   142      40.415 -26.174  -3.173  1.00  0.00    -0.000 C 
ATOM  10380  C21 POP   142      39.401 -25.238  -2.519  1.00  0.00    -0.005 C 
ATOM  10381  C21 POP   142      39.955 -23.852  -2.176  1.00  0.00     0.005 C 
ATOM  10382  C31 POP   142      38.482 -30.149  -4.009  1.00  0.00     0.000 C 
ATOM  10383  C31 POP   142      37.680 -30.723  -2.666  1.00  0.00     0.000 C 
ATOM  10384  C31 POP   142      37.928 -30.011  -1.397  1.00  0.00     0.000 C 
ATOM  10385  C31 POP   142      38.138 -30.841  -0.110  1.00  0.00     0.000 C 
ATOM  10386  C31 POP   142      37.949 -29.941   1.052  1.00  0.00    -0.000 C 
ATOM  10387  C31 POP   142      39.083 -28.900   1.012  1.00  0.00    -0.005 C 
ATOM  10388  C31 POP   142      38.981 -27.841   2.077  1.00  0.00     0.005 C 
ATOM  10389  HN1 POP   142      40.386 -25.119 -21.540  1.00  0.00     0.275 HD
ATOM  10390  HN2 POP   142      41.109 -26.595 -22.226  1.00  0.00     0.275 HD
ATOM  10391  HN3 POP   142      39.866 -26.657 -21.078  1.00  0.00     0.275 HD
ATOM  10392  P   POP   143       8.576 -49.075 -19.699  1.00  0.00     0.408 P 
ATOM  10393  C1  POP   143       6.634 -47.645 -18.633  1.00  0.00     0.216 C 
ATOM  10394  C2  POP   143       6.876 -46.394 -17.741  1.00  0.00     0.180 C 
ATOM  10395  O2  POP   143      10.971 -45.911 -21.692  1.00  0.00    -0.390 OA
ATOM  10396  C3  POP   143       5.541 -45.816 -17.172  1.00  0.00     0.213 C 
ATOM  10397  O3  POP   143      13.007 -47.371 -23.174  1.00  0.00    -0.390 OA
ATOM  10398  O4  POP   143      11.452 -47.519 -25.545  1.00  0.00    -0.390 OA
ATOM  10399  O5  POP   143       8.655 -46.949 -25.391  1.00  0.00    -0.390 OA
ATOM  10400  O6  POP   143       7.359 -47.690 -22.987  1.00  0.00    -0.390 OA
ATOM  10401  C11 POP   143       9.516 -47.878 -21.855  1.00  0.00     0.197 C 
ATOM  10402  O11 POP   143       7.713 -48.569 -18.487  1.00  0.00    -0.287 OA
ATOM  10403  C12 POP   143      10.951 -47.334 -21.846  1.00  0.00     0.181 C 
ATOM  10404  O12 POP   143       8.845 -47.695 -20.589  1.00  0.00    -0.279 OA
ATOM  10405  C13 POP   143      11.627 -47.742 -23.146  1.00  0.00     0.180 C 
ATOM  10406  O13 POP   143       9.828 -49.677 -19.219  1.00  0.00    -0.624 OA
ATOM  10407  C14 POP   143      10.834 -47.148 -24.313  1.00  0.00     0.180 C 
ATOM  10408  O14 POP   143       7.673 -49.923 -20.510  1.00  0.00    -0.624 OA
ATOM  10409  C15 POP   143       9.364 -47.590 -24.312  1.00  0.00     0.180 C 
ATOM  10410  C16 POP   143       8.715 -47.241 -22.981  1.00  0.00     0.181 C 
ATOM  10411  C21 POP   143       9.040 -46.589 -16.869  1.00  0.00     0.259 C 
ATOM  10412  O21 POP   143       7.737 -46.729 -16.646  1.00  0.00    -0.312 OA
ATOM  10413  C22 POP   143       9.814 -46.815 -15.570  1.00  0.00     0.111 C 
ATOM  10414  O22 POP   143       9.558 -46.154 -17.877  1.00  0.00    -0.265 OA
ATOM  10415  C23 POP   143       9.508 -48.158 -14.875  1.00  0.00     0.010 C 
ATOM  10416  C24 POP   143      10.181 -48.324 -13.494  1.00  0.00     0.000 C 
ATOM  10417  C25 POP   143       9.639 -47.444 -12.347  1.00  0.00     0.000 C 
ATOM  10418  C26 POP   143       9.941 -48.023 -10.948  1.00  0.00     0.000 C 
ATOM  10419  C27 POP   143      10.882 -47.175 -10.089  1.00  0.00     0.004 C 
ATOM  10420  C28 POP   143      10.847 -47.609  -8.602  1.00  0.00     0.027 C 
ATOM  10421  C29 POP   143       9.870 -46.904  -7.690  1.00  0.00    -0.031 C 
ATOM  10422  C31 POP   143       5.894 -44.628 -15.182  1.00  0.00     0.258 C 
ATOM  10423  O31 POP   143       5.708 -44.559 -16.489  1.00  0.00    -0.319 OA
ATOM  10424  C32 POP   143       5.876 -43.199 -14.634  1.00  0.00     0.111 C 
ATOM  10425  O32 POP   143       6.007 -45.636 -14.513  1.00  0.00    -0.265 OA
ATOM  10426  C33 POP   143       6.858 -43.070 -13.446  1.00  0.00     0.010 C 
ATOM  10427  C34 POP   143       6.213 -43.429 -12.098  1.00  0.00     0.000 C 
ATOM  10428  C35 POP   143       7.229 -43.511 -10.948  1.00  0.00     0.000 C 
ATOM  10429  C36 POP   143       6.599 -43.415  -9.541  1.00  0.00     0.000 C 
ATOM  10430  C37 POP   143       5.829 -44.676  -9.097  1.00  0.00     0.000 C 
ATOM  10431  C38 POP   143       5.150 -44.563  -7.714  1.00  0.00     0.000 C 
ATOM  10432  C39 POP   143       6.073 -44.858  -6.532  1.00  0.00     0.000 C 
ATOM  10433  C21 POP   143       9.363 -47.432  -6.556  1.00  0.00    -0.031 C 
ATOM  10434  C21 POP   143       9.674 -48.811  -5.993  1.00  0.00     0.027 C 
ATOM  10435  C21 POP   143       9.696 -48.882  -4.447  1.00  0.00     0.004 C 
ATOM  10436  C21 POP   143      10.854 -48.047  -3.885  1.00  0.00     0.000 C 
ATOM  10437  C21 POP   143      10.769 -47.757  -2.370  1.00  0.00     0.000 C 
ATOM  10438  C21 POP   143      10.093 -46.418  -1.949  1.00  0.00     0.000 C 
ATOM  10439  C21 POP   143      10.038 -46.238  -0.422  1.00  0.00    -0.000 C 
ATOM  10440  C21 POP   143       9.522 -44.927   0.205  1.00  0.00    -0.005 C 
ATOM  10441  C21 POP   143      10.480 -44.259   1.178  1.00  0.00     0.005 C 
ATOM  10442  C31 POP   143       5.537 -44.498  -5.142  1.00  0.00     0.000 C 
ATOM  10443  C31 POP   143       6.494 -45.095  -4.107  1.00  0.00     0.000 C 
ATOM  10444  C31 POP   143       6.119 -44.826  -2.645  1.00  0.00     0.000 C 
ATOM  10445  C31 POP   143       5.155 -45.849  -2.022  1.00  0.00     0.000 C 
ATOM  10446  C31 POP   143       4.714 -45.426  -0.609  1.00  0.00    -0.000 C 
ATOM  10447  C31 POP   143       5.757 -45.786   0.449  1.00  0.00    -0.005 C 
ATOM  10448  C31 POP   143       5.736 -47.267   0.810  1.00  0.00     0.005 C 
ATOM  10449  HO2 POP   143      10.262 -45.552 -22.211  1.00  0.00     0.210 HD
ATOM  10450  HO3 POP   143      13.156 -46.735 -23.881  1.00  0.00     0.210 HD
ATOM  10451  HO4 POP   143      12.391 -47.310 -25.582  1.00  0.00     0.210 HD
ATOM  10452  HO5 POP   143       8.664 -46.005 -25.262  1.00  0.00     0.210 HD
ATOM  10453  HO6 POP   143       7.354 -48.655 -22.934  1.00  0.00     0.210 HD
ATOM  10454  P   YOP   144     -46.977 -14.410 -18.938  1.00  0.00     0.406 P 
ATOM  10455  C1  YOP   144     -44.497 -14.763 -19.697  1.00  0.00     0.216 C 
ATOM  10456  C2  YOP   144     -43.113 -14.676 -18.990  1.00  0.00     0.180 C 
ATOM  10457  C3  YOP   144     -42.430 -13.289 -19.158  1.00  0.00     0.213 C 
ATOM  10458  O11 YOP   144     -45.477 -13.946 -19.033  1.00  0.00    -0.287 OA
ATOM  10459  O12 YOP   144     -47.084 -15.166 -17.557  1.00  0.00    -0.300 OA
ATOM  10460  O13 YOP   144     -47.208 -15.441 -19.973  1.00  0.00    -0.624 OA
ATOM  10461  O14 YOP   144     -47.890 -13.264 -18.823  1.00  0.00    -0.624 OA
ATOM  10462  C21 YOP   144     -43.591 -16.189 -17.331  1.00  0.00     0.259 C 
ATOM  10463  O21 YOP   144     -43.252 -14.958 -17.596  1.00  0.00    -0.312 OA
ATOM  10464  C22 YOP   144     -43.629 -16.340 -15.823  1.00  0.00     0.111 C 
ATOM  10465  O22 YOP   144     -43.636 -17.129 -18.110  1.00  0.00    -0.265 OA
ATOM  10466  C23 YOP   144     -42.253 -16.916 -15.530  1.00  0.00     0.010 C 
ATOM  10467  C24 YOP   144     -41.838 -17.097 -14.077  1.00  0.00     0.000 C 
ATOM  10468  C25 YOP   144     -41.449 -15.805 -13.433  1.00  0.00     0.000 C 
ATOM  10469  C26 YOP   144     -41.112 -15.889 -11.952  1.00  0.00     0.000 C 
ATOM  10470  C27 YOP   144     -40.471 -14.566 -11.530  1.00  0.00     0.004 C 
ATOM  10471  C28 YOP   144     -40.463 -14.372 -10.012  1.00  0.00     0.027 C 
ATOM  10472  C29 YOP   144     -39.384 -15.074  -9.226  1.00  0.00    -0.031 C 
ATOM  10473  C31 YOP   144     -42.776 -11.942 -17.250  1.00  0.00     0.258 C 
ATOM  10474  O31 YOP   144     -43.155 -12.219 -18.502  1.00  0.00    -0.319 OA
ATOM  10475  C32 YOP   144     -43.782 -10.992 -16.614  1.00  0.00     0.111 C 
ATOM  10476  O32 YOP   144     -41.746 -12.328 -16.730  1.00  0.00    -0.265 OA
ATOM  10477  C33 YOP   144     -43.463 -10.736 -15.115  1.00  0.00     0.010 C 
ATOM  10478  C34 YOP   144     -43.695 -11.914 -14.146  1.00  0.00     0.000 C 
ATOM  10479  C35 YOP   144     -44.939 -12.713 -14.536  1.00  0.00     0.000 C 
ATOM  10480  C36 YOP   144     -45.373 -13.773 -13.513  1.00  0.00     0.000 C 
ATOM  10481  C37 YOP   144     -45.972 -13.173 -12.228  1.00  0.00     0.004 C 
ATOM  10482  C38 YOP   144     -46.425 -14.217 -11.186  1.00  0.00     0.027 C 
ATOM  10483  C39 YOP   144     -45.295 -14.989 -10.540  1.00  0.00    -0.031 C 
ATOM  10484  C21 YOP   144     -39.526 -16.236  -8.563  1.00  0.00    -0.031 C 
ATOM  10485  C21 YOP   144     -40.789 -17.056  -8.484  1.00  0.00     0.027 C 
ATOM  10486  C21 YOP   144     -41.302 -17.141  -7.028  1.00  0.00     0.004 C 
ATOM  10487  C21 YOP   144     -42.730 -17.721  -6.953  1.00  0.00     0.000 C 
ATOM  10488  C21 YOP   144     -43.407 -17.717  -5.561  1.00  0.00     0.000 C 
ATOM  10489  C21 YOP   144     -44.951 -17.712  -5.586  1.00  0.00     0.000 C 
ATOM  10490  C21 YOP   144     -45.625 -17.361  -4.240  1.00  0.00    -0.000 C 
ATOM  10491  C21 YOP   144     -44.942 -18.047  -3.058  1.00  0.00    -0.005 C 
ATOM  10492  C21 YOP   144     -45.391 -17.554  -1.682  1.00  0.00     0.005 C 
ATOM  10493  C31 YOP   144     -44.415 -14.521  -9.638  1.00  0.00    -0.031 C 
ATOM  10494  C31 YOP   144     -44.365 -13.129  -9.076  1.00  0.00     0.027 C 
ATOM  10495  C31 YOP   144     -43.799 -13.119  -7.640  1.00  0.00     0.004 C 
ATOM  10496  C31 YOP   144     -44.579 -13.931  -6.577  1.00  0.00     0.000 C 
ATOM  10497  C31 YOP   144     -43.969 -13.807  -5.170  1.00  0.00    -0.000 C 
ATOM  10498  C31 YOP   144     -44.376 -12.576  -4.350  1.00  0.00    -0.005 C 
ATOM  10499  C31 YOP   144     -43.646 -12.560  -3.010  1.00  0.00     0.005 C 
ATOM  10500  H12 YOP   144     -46.593 -15.980 -17.575  1.00  0.00     0.223 HD
ATOM  10501  N   POP   145     -11.917 -45.994 -18.894  1.00  0.00    -0.077 N 
ATOM  10502  P   POP   145     -10.645 -49.927 -18.933  1.00  0.00     0.408 P 
ATOM  10503  C1  POP   145      -8.585 -49.360 -17.411  1.00  0.00     0.216 C 
ATOM  10504  C2  POP   145      -8.156 -49.227 -15.940  1.00  0.00     0.180 C 
ATOM  10505  C3  POP   145      -6.625 -49.422 -15.846  1.00  0.00     0.213 C 
ATOM  10506  C11 POP   145     -10.193 -47.506 -19.842  1.00  0.00     0.208 C 
ATOM  10507  O11 POP   145     -10.015 -49.347 -17.592  1.00  0.00    -0.287 OA
ATOM  10508  C12 POP   145     -10.494 -46.491 -18.740  1.00  0.00     0.256 C 
ATOM  10509  O12 POP   145     -11.095 -48.592 -19.700  1.00  0.00    -0.288 OA
ATOM  10510  O13 POP   145      -9.552 -50.589 -19.689  1.00  0.00    -0.624 OA
ATOM  10511  O14 POP   145     -11.886 -50.653 -18.623  1.00  0.00    -0.624 OA
ATOM  10512  C21 POP   145      -9.485 -47.851 -14.666  1.00  0.00     0.259 C 
ATOM  10513  O21 POP   145      -8.492 -47.900 -15.518  1.00  0.00    -0.312 OA
ATOM  10514  C22 POP   145      -9.736 -46.387 -14.364  1.00  0.00     0.111 C 
ATOM  10515  O22 POP   145     -10.064 -48.784 -14.145  1.00  0.00    -0.265 OA
ATOM  10516  C23 POP   145     -10.463 -46.269 -13.017  1.00  0.00     0.010 C 
ATOM  10517  C24 POP   145      -9.463 -46.526 -11.881  1.00  0.00     0.000 C 
ATOM  10518  C25 POP   145     -10.051 -46.539 -10.461  1.00  0.00     0.000 C 
ATOM  10519  C26 POP   145     -11.159 -47.587 -10.186  1.00  0.00     0.000 C 
ATOM  10520  C27 POP   145     -10.719 -49.067 -10.042  1.00  0.00     0.004 C 
ATOM  10521  C28 POP   145      -9.587 -49.352  -9.047  1.00  0.00     0.027 C 
ATOM  10522  C29 POP   145     -10.063 -48.882  -7.640  1.00  0.00    -0.031 C 
ATOM  10523  C31 POP   145      -6.414 -49.684 -13.556  1.00  0.00     0.258 C 
ATOM  10524  O31 POP   145      -6.120 -48.929 -14.604  1.00  0.00    -0.319 OA
ATOM  10525  C32 POP   145      -5.771 -49.064 -12.378  1.00  0.00     0.111 C 
ATOM  10526  O32 POP   145      -7.012 -50.733 -13.534  1.00  0.00    -0.265 OA
ATOM  10527  C33 POP   145      -5.282 -50.008 -11.300  1.00  0.00     0.010 C 
ATOM  10528  C34 POP   145      -6.383 -50.219 -10.292  1.00  0.00     0.000 C 
ATOM  10529  C35 POP   145      -5.860 -51.088  -9.189  1.00  0.00     0.000 C 
ATOM  10530  C36 POP   145      -6.869 -51.317  -8.042  1.00  0.00     0.000 C 
ATOM  10531  C37 POP   145      -6.138 -51.908  -6.879  1.00  0.00     0.000 C 
ATOM  10532  C38 POP   145      -6.662 -52.789  -5.749  1.00  0.00     0.000 C 
ATOM  10533  C39 POP   145      -6.567 -52.008  -4.447  1.00  0.00     0.000 C 
ATOM  10534  C21 POP   145      -9.610 -48.007  -6.707  1.00  0.00    -0.030 C 
ATOM  10535  C21 POP   145      -8.400 -47.170  -6.800  1.00  0.00     0.030 C 
ATOM  10536  C21 POP   145      -6.937 -47.716  -5.893  1.00  0.00     0.000 C 
ATOM  10537  C21 POP   145      -5.146 -47.244  -5.678  1.00  0.00     0.000 C 
ATOM  10538  C21 POP   145      -4.211 -46.674  -4.662  1.00  0.00     0.000 C 
ATOM  10539  C21 POP   145      -3.780 -47.980  -4.484  1.00  0.00     0.000 C 
ATOM  10540  C21 POP   145      -2.676 -47.495  -3.675  1.00  0.00    -0.000 C 
ATOM  10541  C21 POP   145      -2.379 -48.667  -2.885  1.00  0.00    -0.005 C 
ATOM  10542  C21 POP   145      -3.478 -48.964  -1.858  1.00  0.00     0.005 C 
ATOM  10543  C31 POP   145      -7.648 -50.937  -4.461  1.00  0.00     0.000 C 
ATOM  10544  C31 POP   145      -7.931 -50.307  -3.093  1.00  0.00     0.000 C 
ATOM  10545  C31 POP   145      -8.962 -49.157  -3.076  1.00  0.00     0.000 C 
ATOM  10546  C31 POP   145      -9.203 -48.584  -1.667  1.00  0.00     0.000 C 
ATOM  10547  C31 POP   145      -7.888 -47.957  -1.160  1.00  0.00    -0.000 C 
ATOM  10548  C31 POP   145      -7.474 -46.717  -1.975  1.00  0.00    -0.005 C 
ATOM  10549  C31 POP   145      -6.533 -45.625  -1.431  1.00  0.00     0.005 C 
ATOM  10550  HN1 POP   145     -12.193 -45.248 -18.214  1.00  0.00     0.274 HD
ATOM  10551  HN2 POP   145     -12.020 -45.677 -19.878  1.00  0.00     0.274 HD
ATOM  10552  HN3 POP   145     -12.534 -46.833 -18.778  1.00  0.00     0.274 HD
ATOM  10553  P   POP   146     -30.839 -40.196 -20.138  1.00  0.00     0.408 P 
ATOM  10554  C1  POP   146     -29.364 -40.627 -18.055  1.00  0.00     0.216 C 
ATOM  10555  C2  POP   146     -28.998 -40.034 -16.691  1.00  0.00     0.180 C 
ATOM  10556  O2  POP   146     -27.663 -41.833 -22.637  1.00  0.00    -0.390 OA
ATOM  10557  C3  POP   146     -28.818 -38.503 -16.753  1.00  0.00     0.213 C 
ATOM  10558  O3  POP   146     -28.994 -42.840 -25.024  1.00  0.00    -0.390 OA
ATOM  10559  O4  POP   146     -28.822 -40.453 -26.552  1.00  0.00    -0.390 OA
ATOM  10560  O5  POP   146     -28.332 -38.003 -25.230  1.00  0.00    -0.390 OA
ATOM  10561  O6  POP   146     -29.174 -37.766 -22.494  1.00  0.00    -0.390 OA
ATOM  10562  C11 POP   146     -29.471 -40.181 -22.380  1.00  0.00     0.197 C 
ATOM  10563  O11 POP   146     -30.451 -39.895 -18.636  1.00  0.00    -0.287 OA
ATOM  10564  C12 POP   146     -29.022 -41.540 -22.921  1.00  0.00     0.181 C 
ATOM  10565  O12 POP   146     -29.400 -40.083 -20.942  1.00  0.00    -0.279 OA
ATOM  10566  C13 POP   146     -29.308 -41.573 -24.422  1.00  0.00     0.180 C 
ATOM  10567  O13 POP   146     -31.277 -41.600 -20.224  1.00  0.00    -0.624 OA
ATOM  10568  C14 POP   146     -28.573 -40.426 -25.130  1.00  0.00     0.180 C 
ATOM  10569  O14 POP   146     -31.777 -39.161 -20.651  1.00  0.00    -0.624 OA
ATOM  10570  C15 POP   146     -28.975 -39.082 -24.530  1.00  0.00     0.180 C 
ATOM  10571  C16 POP   146     -28.713 -39.022 -23.023  1.00  0.00     0.181 C 
ATOM  10572  C21 POP   146     -29.789 -41.220 -14.848  1.00  0.00     0.259 C 
ATOM  10573  O21 POP   146     -30.042 -40.287 -15.733  1.00  0.00    -0.312 OA
ATOM  10574  C22 POP   146     -30.880 -41.148 -13.789  1.00  0.00     0.111 C 
ATOM  10575  O22 POP   146     -28.841 -41.984 -14.870  1.00  0.00    -0.265 OA
ATOM  10576  C23 POP   146     -30.585 -42.026 -12.562  1.00  0.00     0.010 C 
ATOM  10577  C24 POP   146     -29.497 -41.455 -11.607  1.00  0.00     0.000 C 
ATOM  10578  C25 POP   146     -28.783 -42.544 -10.803  1.00  0.00     0.000 C 
ATOM  10579  C26 POP   146     -28.545 -42.378  -9.296  1.00  0.00     0.000 C 
ATOM  10580  C27 POP   146     -29.807 -42.116  -8.445  1.00  0.00     0.004 C 
ATOM  10581  C28 POP   146     -29.534 -41.529  -7.046  1.00  0.00     0.027 C 
ATOM  10582  C29 POP   146     -28.776 -42.517  -6.190  1.00  0.00    -0.031 C 
ATOM  10583  C31 POP   146     -27.215 -38.382 -15.102  1.00  0.00     0.258 C 
ATOM  10584  O31 POP   146     -28.457 -38.062 -15.435  1.00  0.00    -0.319 OA
ATOM  10585  C32 POP   146     -27.197 -38.699 -13.611  1.00  0.00     0.111 C 
ATOM  10586  O32 POP   146     -26.283 -38.519 -15.872  1.00  0.00    -0.265 OA
ATOM  10587  C33 POP   146     -25.775 -38.933 -13.073  1.00  0.00     0.010 C 
ATOM  10588  C34 POP   146     -25.748 -39.317 -11.585  1.00  0.00     0.000 C 
ATOM  10589  C35 POP   146     -26.190 -38.212 -10.613  1.00  0.00     0.000 C 
ATOM  10590  C36 POP   146     -25.830 -38.601  -9.167  1.00  0.00     0.000 C 
ATOM  10591  C37 POP   146     -26.180 -37.548  -8.104  1.00  0.00     0.000 C 
ATOM  10592  C38 POP   146     -26.668 -38.225  -6.822  1.00  0.00     0.000 C 
ATOM  10593  C39 POP   146     -25.580 -39.020  -6.102  1.00  0.00     0.000 C 
ATOM  10594  C21 POP   146     -28.952 -42.730  -4.879  1.00  0.00    -0.031 C 
ATOM  10595  C21 POP   146     -29.941 -42.018  -3.996  1.00  0.00     0.027 C 
ATOM  10596  C21 POP   146     -30.084 -42.767  -2.652  1.00  0.00     0.004 C 
ATOM  10597  C21 POP   146     -30.856 -42.035  -1.525  1.00  0.00     0.000 C 
ATOM  10598  C21 POP   146     -30.408 -40.590  -1.235  1.00  0.00     0.000 C 
ATOM  10599  C21 POP   146     -28.926 -40.491  -0.843  1.00  0.00     0.000 C 
ATOM  10600  C21 POP   146     -28.444 -39.087  -0.462  1.00  0.00    -0.000 C 
ATOM  10601  C21 POP   146     -27.913 -38.305  -1.659  1.00  0.00    -0.005 C 
ATOM  10602  C21 POP   146     -27.539 -36.857  -1.332  1.00  0.00     0.005 C 
ATOM  10603  C31 POP   146     -26.235 -39.819  -4.956  1.00  0.00     0.000 C 
ATOM  10604  C31 POP   146     -25.268 -40.526  -4.074  1.00  0.00     0.000 C 
ATOM  10605  C31 POP   146     -25.693 -41.354  -2.870  1.00  0.00     0.000 C 
ATOM  10606  C31 POP   146     -24.637 -41.641  -1.776  1.00  0.00     0.000 C 
ATOM  10607  C31 POP   146     -25.362 -41.975  -0.473  1.00  0.00    -0.000 C 
ATOM  10608  C31 POP   146     -24.440 -42.369   0.672  1.00  0.00    -0.005 C 
ATOM  10609  C31 POP   146     -23.599 -41.217   1.224  1.00  0.00     0.005 C 
ATOM  10610  HO2 POP   146     -27.550 -42.775 -22.807  1.00  0.00     0.210 HD
ATOM  10611  HO3 POP   146     -29.803 -43.331 -25.248  1.00  0.00     0.210 HD
ATOM  10612  HO4 POP   146     -28.326 -39.739 -26.978  1.00  0.00     0.210 HD
ATOM  10613  HO5 POP   146     -29.007 -37.349 -25.419  1.00  0.00     0.210 HD
ATOM  10614  HO6 POP   146     -29.955 -37.513 -22.975  1.00  0.00     0.210 HD
ATOM  10615  N   YOP   147     -39.610 -32.323 -20.780  1.00  0.00    -0.077 N 
ATOM  10616  P   YOP   147     -37.592 -32.336 -17.310  1.00  0.00     0.408 P 
ATOM  10617  C1  YOP   147     -38.326 -34.104 -15.542  1.00  0.00     0.216 C 
ATOM  10618  C2  YOP   147     -39.524 -34.451 -14.617  1.00  0.00     0.180 C 
ATOM  10619  C3  YOP   147     -39.063 -35.423 -13.513  1.00  0.00     0.213 C 
ATOM  10620  C11 YOP   147     -39.217 -33.928 -18.660  1.00  0.00     0.209 C 
ATOM  10621  O11 YOP   147     -38.454 -32.794 -16.073  1.00  0.00    -0.287 OA
ATOM  10622  C12 YOP   147     -39.605 -33.705 -20.141  1.00  0.00     0.262 C 
ATOM  10623  O12 YOP   147     -37.906 -33.470 -18.378  1.00  0.00    -0.288 OA
ATOM  10624  C13 YOP   147     -38.241 -31.707 -20.828  1.00  0.00     0.271 C 
ATOM  10625  O13 YOP   147     -36.150 -32.373 -16.983  1.00  0.00    -0.624 OA
ATOM  10626  C14 YOP   147     -40.011 -32.516 -22.188  1.00  0.00     0.271 C 
ATOM  10627  O14 YOP   147     -38.193 -31.079 -17.813  1.00  0.00    -0.624 OA
ATOM  10628  C15 YOP   147     -40.577 -31.413 -20.082  1.00  0.00     0.271 C 
ATOM  10629  C21 YOP   147     -41.281 -33.422 -13.481  1.00  0.00     0.259 C 
ATOM  10630  O21 YOP   147     -40.105 -33.265 -14.040  1.00  0.00    -0.312 OA
ATOM  10631  C22 YOP   147     -41.860 -32.059 -13.175  1.00  0.00     0.111 C 
ATOM  10632  O22 YOP   147     -41.886 -34.468 -13.334  1.00  0.00    -0.265 OA
ATOM  10633  C23 YOP   147     -42.379 -31.883 -11.740  1.00  0.00     0.010 C 
ATOM  10634  C24 YOP   147     -43.174 -30.578 -11.733  1.00  0.00     0.000 C 
ATOM  10635  C25 YOP   147     -43.683 -30.127 -10.372  1.00  0.00     0.000 C 
ATOM  10636  C26 YOP   147     -42.565 -29.786  -9.402  1.00  0.00     0.000 C 
ATOM  10637  C27 YOP   147     -41.924 -28.452  -9.753  1.00  0.00     0.004 C 
ATOM  10638  C28 YOP   147     -40.747 -28.155  -8.829  1.00  0.00     0.027 C 
ATOM  10639  C29 YOP   147     -41.150 -27.622  -7.471  1.00  0.00    -0.031 C 
ATOM  10640  C31 YOP   147     -37.976 -35.214 -11.474  1.00  0.00     0.258 C 
ATOM  10641  O31 YOP   147     -38.052 -34.787 -12.716  1.00  0.00    -0.319 OA
ATOM  10642  C32 YOP   147     -36.949 -34.358 -10.747  1.00  0.00     0.111 C 
ATOM  10643  O32 YOP   147     -38.622 -36.130 -10.996  1.00  0.00    -0.265 OA
ATOM  10644  C33 YOP   147     -37.464 -32.911 -10.599  1.00  0.00     0.010 C 
ATOM  10645  C34 YOP   147     -38.774 -32.806  -9.802  1.00  0.00     0.000 C 
ATOM  10646  C35 YOP   147     -38.678 -33.220  -8.324  1.00  0.00     0.000 C 
ATOM  10647  C36 YOP   147     -39.700 -34.323  -7.995  1.00  0.00     0.000 C 
ATOM  10648  C37 YOP   147     -41.149 -33.807  -8.024  1.00  0.00     0.004 C 
ATOM  10649  C38 YOP   147     -42.280 -34.806  -7.676  1.00  0.00     0.027 C 
ATOM  10650  C39 YOP   147     -42.010 -35.910  -6.690  1.00  0.00    -0.031 C 
ATOM  10651  C21 YOP   147     -40.340 -27.383  -6.424  1.00  0.00    -0.031 C 
ATOM  10652  C21 YOP   147     -38.853 -27.609  -6.405  1.00  0.00     0.027 C 
ATOM  10653  C21 YOP   147     -38.605 -29.051  -5.951  1.00  0.00     0.004 C 
ATOM  10654  C21 YOP   147     -37.162 -29.268  -5.480  1.00  0.00     0.000 C 
ATOM  10655  C21 YOP   147     -36.870 -30.661  -4.895  1.00  0.00     0.000 C 
ATOM  10656  C21 YOP   147     -37.877 -31.200  -3.864  1.00  0.00     0.000 C 
ATOM  10657  C21 YOP   147     -38.217 -30.256  -2.688  1.00  0.00    -0.000 C 
ATOM  10658  C21 YOP   147     -37.327 -30.344  -1.448  1.00  0.00    -0.005 C 
ATOM  10659  C21 YOP   147     -37.674 -31.551  -0.668  1.00  0.00     0.005 C 
ATOM  10660  C31 YOP   147     -42.022 -35.766  -5.357  1.00  0.00    -0.031 C 
ATOM  10661  C31 YOP   147     -42.299 -34.495  -4.623  1.00  0.00     0.027 C 
ATOM  10662  C31 YOP   147     -41.248 -34.363  -3.522  1.00  0.00     0.004 C 
ATOM  10663  C31 YOP   147     -41.294 -33.064  -2.684  1.00  0.00     0.000 C 
ATOM  10664  C31 YOP   147     -42.637 -32.680  -2.010  1.00  0.00    -0.000 C 
ATOM  10665  C31 YOP   147     -42.577 -31.678  -0.815  1.00  0.00    -0.005 C 
ATOM  10666  C31 YOP   147     -42.080 -30.252  -1.107  1.00  0.00     0.005 C 
ATOM  10667  N   POP   148     -40.033  30.848 -17.885  1.00  0.00    -0.063 N 
ATOM  10668  P   POP   148     -41.751  27.382 -18.201  1.00  0.00     0.408 P 
ATOM  10669  C1  POP   148     -44.330  27.760 -17.807  1.00  0.00     0.216 C 
ATOM  10670  C2  POP   148     -45.203  27.510 -16.530  1.00  0.00     0.180 C 
ATOM  10671  C3  POP   148     -44.985  26.088 -15.932  1.00  0.00     0.213 C 
ATOM  10672  C11 POP   148     -41.666  29.744 -19.519  1.00  0.00     0.225 C 
ATOM  10673  O11 POP   148     -42.974  28.123 -17.513  1.00  0.00    -0.287 OA
ATOM  10674  C12 POP   148     -40.398  30.619 -19.319  1.00  0.00     0.307 C 
ATOM  10675  O12 POP   148     -41.316  28.386 -19.320  1.00  0.00    -0.287 OA
ATOM  10676  C13 POP   148     -40.414  31.940 -20.123  1.00  0.00     0.206 C 
ATOM  10677  O13 POP   148     -40.612  27.384 -17.252  1.00  0.00    -0.624 OA
ATOM  10678  O13 POP   148     -40.010  32.979 -19.528  1.00  0.00    -0.646 OA
ATOM  10679  O13 POP   148     -40.804  31.926 -21.310  1.00  0.00    -0.646 OA
ATOM  10680  O14 POP   148     -42.191  26.115 -18.806  1.00  0.00    -0.624 OA
ATOM  10681  C21 POP   148     -45.382  29.678 -15.546  1.00  0.00     0.259 C 
ATOM  10682  O21 POP   148     -45.025  28.426 -15.449  1.00  0.00    -0.312 OA
ATOM  10683  C22 POP   148     -45.450  30.234 -14.102  1.00  0.00     0.111 C 
ATOM  10684  O22 POP   148     -45.758  30.264 -16.545  1.00  0.00    -0.265 OA
ATOM  10685  C23 POP   148     -44.620  31.501 -13.855  1.00  0.00     0.010 C 
ATOM  10686  C24 POP   148     -43.179  31.116 -13.540  1.00  0.00     0.000 C 
ATOM  10687  C25 POP   148     -42.222  32.299 -13.350  1.00  0.00     0.000 C 
ATOM  10688  C26 POP   148     -42.444  33.130 -12.069  1.00  0.00     0.000 C 
ATOM  10689  C27 POP   148     -42.784  32.329 -10.796  1.00  0.00     0.004 C 
ATOM  10690  C28 POP   148     -42.489  33.090  -9.479  1.00  0.00     0.027 C 
ATOM  10691  C29 POP   148     -41.061  32.964  -8.984  1.00  0.00    -0.031 C 
ATOM  10692  C31 POP   148     -43.460  26.289 -14.186  1.00  0.00     0.258 C 
ATOM  10693  O31 POP   148     -43.640  25.933 -15.444  1.00  0.00    -0.319 OA
ATOM  10694  C32 POP   148     -41.980  26.253 -13.845  1.00  0.00     0.111 C 
ATOM  10695  O32 POP   148     -44.341  26.551 -13.381  1.00  0.00    -0.265 OA
ATOM  10696  C33 POP   148     -41.658  27.369 -12.822  1.00  0.00     0.010 C 
ATOM  10697  C34 POP   148     -40.259  27.200 -12.229  1.00  0.00     0.000 C 
ATOM  10698  C35 POP   148     -39.953  27.940 -10.920  1.00  0.00     0.000 C 
ATOM  10699  C36 POP   148     -39.586  26.937  -9.827  1.00  0.00     0.000 C 
ATOM  10700  C37 POP   148     -40.751  26.052  -9.369  1.00  0.00     0.000 C 
ATOM  10701  C38 POP   148     -41.812  26.841  -8.596  1.00  0.00     0.000 C 
ATOM  10702  C39 POP   148     -42.696  25.927  -7.726  1.00  0.00     0.000 C 
ATOM  10703  C21 POP   148     -40.625  31.929  -8.242  1.00  0.00    -0.031 C 
ATOM  10704  C21 POP   148     -41.437  30.739  -7.783  1.00  0.00     0.027 C 
ATOM  10705  C21 POP   148     -42.457  30.902  -6.616  1.00  0.00     0.004 C 
ATOM  10706  C21 POP   148     -41.941  31.591  -5.327  1.00  0.00     0.000 C 
ATOM  10707  C21 POP   148     -40.705  30.923  -4.683  1.00  0.00     0.000 C 
ATOM  10708  C21 POP   148     -40.300  31.471  -3.298  1.00  0.00     0.000 C 
ATOM  10709  C21 POP   148     -38.983  30.859  -2.756  1.00  0.00    -0.000 C 
ATOM  10710  C21 POP   148     -38.995  29.385  -2.295  1.00  0.00    -0.005 C 
ATOM  10711  C21 POP   148     -39.316  29.200  -0.805  1.00  0.00     0.005 C 
ATOM  10712  C31 POP   148     -43.477  26.718  -6.657  1.00  0.00     0.000 C 
ATOM  10713  C31 POP   148     -44.117  25.873  -5.540  1.00  0.00     0.000 C 
ATOM  10714  C31 POP   148     -44.843  26.643  -4.417  1.00  0.00     0.000 C 
ATOM  10715  C31 POP   148     -43.960  27.629  -3.626  1.00  0.00     0.000 C 
ATOM  10716  C31 POP   148     -42.626  27.116  -3.019  1.00  0.00    -0.000 C 
ATOM  10717  C31 POP   148     -42.755  25.934  -2.048  1.00  0.00    -0.005 C 
ATOM  10718  C31 POP   148     -41.466  25.563  -1.284  1.00  0.00     0.005 C 
ATOM  10719  HN1 POP   148     -39.691  29.968 -17.454  1.00  0.00     0.275 HD
ATOM  10720  HN2 POP   148     -39.290  31.588 -17.970  1.00  0.00     0.275 HD
ATOM  10721  HN3 POP   148     -40.842  31.237 -17.372  1.00  0.00     0.275 HD
ATOM  10722  N   POP   149     -48.494   8.929 -20.647  1.00  0.00    -0.063 N 
ATOM  10723  P   POP   149     -51.799   6.995 -19.291  1.00  0.00     0.408 P 
ATOM  10724  C1  POP   149     -52.584   7.271 -16.853  1.00  0.00     0.216 C 
ATOM  10725  C2  POP   149     -53.079   8.324 -15.836  1.00  0.00     0.180 C 
ATOM  10726  C3  POP   149     -52.976   7.848 -14.368  1.00  0.00     0.213 C 
ATOM  10727  C11 POP   149     -49.416   7.895 -18.530  1.00  0.00     0.225 C 
ATOM  10728  O11 POP   149     -52.202   7.903 -18.080  1.00  0.00    -0.287 OA
ATOM  10729  C12 POP   149     -49.068   9.214 -19.291  1.00  0.00     0.307 C 
ATOM  10730  O12 POP   149     -50.211   7.036 -19.343  1.00  0.00    -0.287 OA
ATOM  10731  C13 POP   149     -48.151  10.057 -18.396  1.00  0.00     0.206 C 
ATOM  10732  O13 POP   149     -52.246   5.612 -19.033  1.00  0.00    -0.624 OA
ATOM  10733  O13 POP   149     -46.980  10.294 -18.789  1.00  0.00    -0.646 OA
ATOM  10734  O13 POP   149     -48.624  10.450 -17.307  1.00  0.00    -0.646 OA
ATOM  10735  O14 POP   149     -52.316   7.710 -20.487  1.00  0.00    -0.624 OA
ATOM  10736  C21 POP   149     -52.656  10.594 -15.535  1.00  0.00     0.259 C 
ATOM  10737  O21 POP   149     -52.235   9.464 -16.009  1.00  0.00    -0.312 OA
ATOM  10738  C22 POP   149     -51.545  11.619 -15.709  1.00  0.00     0.111 C 
ATOM  10739  O22 POP   149     -53.713  10.792 -14.953  1.00  0.00    -0.265 OA
ATOM  10740  C23 POP   149     -50.770  11.817 -14.394  1.00  0.00     0.010 C 
ATOM  10741  C24 POP   149     -49.808  10.661 -14.107  1.00  0.00     0.000 C 
ATOM  10742  C25 POP   149     -49.002  10.911 -12.835  1.00  0.00     0.000 C 
ATOM  10743  C26 POP   149     -49.781  10.675 -11.543  1.00  0.00     0.000 C 
ATOM  10744  C27 POP   149     -48.923  10.954 -10.302  1.00  0.00     0.004 C 
ATOM  10745  C28 POP   149     -49.746  11.221  -9.036  1.00  0.00     0.027 C 
ATOM  10746  C29 POP   149     -50.473  10.070  -8.401  1.00  0.00    -0.031 C 
ATOM  10747  C31 POP   149     -51.305   7.188 -12.880  1.00  0.00     0.258 C 
ATOM  10748  O31 POP   149     -51.612   7.471 -14.118  1.00  0.00    -0.319 OA
ATOM  10749  C32 POP   149     -49.827   6.801 -12.846  1.00  0.00     0.111 C 
ATOM  10750  O32 POP   149     -52.070   7.196 -11.931  1.00  0.00    -0.265 OA
ATOM  10751  C33 POP   149     -49.354   6.565 -11.400  1.00  0.00     0.010 C 
ATOM  10752  C34 POP   149     -47.959   5.925 -11.313  1.00  0.00     0.000 C 
ATOM  10753  C35 POP   149     -47.702   5.162 -10.004  1.00  0.00     0.000 C 
ATOM  10754  C36 POP   149     -47.596   6.101  -8.789  1.00  0.00     0.000 C 
ATOM  10755  C37 POP   149     -47.075   5.457  -7.485  1.00  0.00     0.000 C 
ATOM  10756  C38 POP   149     -47.792   4.175  -7.036  1.00  0.00     0.000 C 
ATOM  10757  C39 POP   149     -48.861   4.299  -5.934  1.00  0.00     0.000 C 
ATOM  10758  C21 POP   149     -50.003   9.319  -7.390  1.00  0.00    -0.031 C 
ATOM  10759  C21 POP   149     -48.665   9.474  -6.705  1.00  0.00     0.027 C 
ATOM  10760  C21 POP   149     -48.682  10.383  -5.474  1.00  0.00     0.004 C 
ATOM  10761  C21 POP   149     -49.414   9.790  -4.283  1.00  0.00     0.000 C 
ATOM  10762  C21 POP   149     -49.692  10.902  -3.274  1.00  0.00     0.000 C 
ATOM  10763  C21 POP   149     -48.492  11.260  -2.389  1.00  0.00     0.000 C 
ATOM  10764  C21 POP   149     -47.941  10.051  -1.628  1.00  0.00    -0.000 C 
ATOM  10765  C21 POP   149     -47.268  10.491  -0.332  1.00  0.00    -0.005 C 
ATOM  10766  C21 POP   149     -45.962  11.235  -0.545  1.00  0.00     0.005 C 
ATOM  10767  C31 POP   149     -49.660   5.605  -5.880  1.00  0.00     0.000 C 
ATOM  10768  C31 POP   149     -50.715   5.584  -4.767  1.00  0.00     0.000 C 
ATOM  10769  C31 POP   149     -51.990   4.841  -5.202  1.00  0.00     0.000 C 
ATOM  10770  C31 POP   149     -53.212   5.197  -4.351  1.00  0.00     0.000 C 
ATOM  10771  C31 POP   149     -53.086   4.804  -2.877  1.00  0.00    -0.000 C 
ATOM  10772  C31 POP   149     -54.307   5.229  -2.039  1.00  0.00    -0.005 C 
ATOM  10773  C31 POP   149     -54.641   6.726  -2.013  1.00  0.00     0.005 C 
ATOM  10774  HN1 POP   149     -48.254   9.850 -21.077  1.00  0.00     0.275 HD
ATOM  10775  HN2 POP   149     -47.633   8.361 -20.554  1.00  0.00     0.275 HD
ATOM  10776  HN3 POP   149     -49.233   8.404 -21.159  1.00  0.00     0.275 HD
ATOM  10777  N   POP   150      21.107  43.720 -19.946  1.00  0.00    -0.077 N 
ATOM  10778  P   POP   150      22.898  46.355 -18.260  1.00  0.00     0.408 P 
ATOM  10779  C1  POP   150      21.930  48.199 -16.631  1.00  0.00     0.216 C 
ATOM  10780  C2  POP   150      22.456  47.959 -15.176  1.00  0.00     0.180 C 
ATOM  10781  C3  POP   150      21.508  47.013 -14.370  1.00  0.00     0.213 C 
ATOM  10782  C11 POP   150      20.822  46.287 -19.897  1.00  0.00     0.208 C 
ATOM  10783  O11 POP   150      21.772  46.978 -17.343  1.00  0.00    -0.287 OA
ATOM  10784  C12 POP   150      20.527  44.953 -20.604  1.00  0.00     0.256 C 
ATOM  10785  O12 POP   150      22.210  46.476 -19.676  1.00  0.00    -0.288 OA
ATOM  10786  O13 POP   150      24.149  47.137 -18.252  1.00  0.00    -0.624 OA
ATOM  10787  O14 POP   150      22.942  44.890 -18.025  1.00  0.00    -0.624 OA
ATOM  10788  C21 POP   150      24.812  48.004 -14.877  1.00  0.00     0.259 C 
ATOM  10789  O21 POP   150      23.741  47.313 -15.198  1.00  0.00    -0.312 OA
ATOM  10790  C22 POP   150      26.056  47.113 -15.082  1.00  0.00     0.111 C 
ATOM  10791  O22 POP   150      24.844  49.178 -14.539  1.00  0.00    -0.265 OA
ATOM  10792  C23 POP   150      26.632  46.376 -13.840  1.00  0.00     0.010 C 
ATOM  10793  C24 POP   150      25.874  45.143 -13.318  1.00  0.00     0.000 C 
ATOM  10794  C25 POP   150      26.696  44.478 -12.198  1.00  0.00     0.000 C 
ATOM  10795  C26 POP   150      25.871  43.780 -11.112  1.00  0.00     0.000 C 
ATOM  10796  C27 POP   150      25.185  44.728 -10.111  1.00  0.00     0.004 C 
ATOM  10797  C28 POP   150      24.598  43.990  -8.898  1.00  0.00     0.027 C 
ATOM  10798  C29 POP   150      25.661  43.268  -8.103  1.00  0.00    -0.031 C 
ATOM  10799  C31 POP   150      21.484  47.905 -12.200  1.00  0.00     0.258 C 
ATOM  10800  O31 POP   150      21.864  46.911 -12.978  1.00  0.00    -0.319 OA
ATOM  10801  C32 POP   150      21.733  47.479 -10.757  1.00  0.00     0.111 C 
ATOM  10802  O32 POP   150      20.959  48.945 -12.553  1.00  0.00    -0.265 OA
ATOM  10803  C33 POP   150      20.615  46.522 -10.269  1.00  0.00     0.010 C 
ATOM  10804  C34 POP   150      19.218  47.159 -10.270  1.00  0.00     0.000 C 
ATOM  10805  C35 POP   150      18.136  46.335  -9.563  1.00  0.00     0.000 C 
ATOM  10806  C36 POP   150      18.436  46.016  -8.100  1.00  0.00     0.000 C 
ATOM  10807  C37 POP   150      17.279  45.388  -7.410  1.00  0.00     0.000 C 
ATOM  10808  C38 POP   150      17.500  45.509  -5.927  1.00  0.00     0.000 C 
ATOM  10809  C39 POP   150      17.766  44.237  -5.214  1.00  0.00     0.000 C 
ATOM  10810  C21 POP   150      25.473  42.216  -7.292  1.00  0.00    -0.031 C 
ATOM  10811  C21 POP   150      24.159  41.545  -7.009  1.00  0.00     0.027 C 
ATOM  10812  C21 POP   150      23.846  41.688  -5.504  1.00  0.00     0.004 C 
ATOM  10813  C21 POP   150      23.519  43.127  -5.031  1.00  0.00     0.000 C 
ATOM  10814  C21 POP   150      22.382  43.846  -5.782  1.00  0.00     0.000 C 
ATOM  10815  C21 POP   150      22.117  45.302  -5.310  1.00  0.00     0.000 C 
ATOM  10816  C21 POP   150      21.422  45.447  -3.933  1.00  0.00    -0.000 C 
ATOM  10817  C21 POP   150      20.895  46.867  -3.616  1.00  0.00    -0.005 C 
ATOM  10818  C21 POP   150      20.257  47.043  -2.230  1.00  0.00     0.005 C 
ATOM  10819  C31 POP   150      17.306  44.204  -3.749  1.00  0.00     0.000 C 
ATOM  10820  C31 POP   150      18.053  43.105  -3.025  1.00  0.00     0.000 C 
ATOM  10821  C31 POP   150      18.320  43.415  -1.537  1.00  0.00     0.000 C 
ATOM  10822  C31 POP   150      17.086  43.698  -0.660  1.00  0.00     0.000 C 
ATOM  10823  C31 POP   150      17.363  44.251   0.764  1.00  0.00    -0.000 C 
ATOM  10824  C31 POP   150      18.262  45.506   0.867  1.00  0.00    -0.005 C 
ATOM  10825  C31 POP   150      17.702  46.821   0.319  1.00  0.00     0.005 C 
ATOM  10826  HN1 POP   150      22.033  43.932 -19.483  1.00  0.00     0.274 HD
ATOM  10827  HN2 POP   150      20.457  43.428 -19.191  1.00  0.00     0.274 HD
ATOM  10828  HN3 POP   150      21.210  42.957 -20.646  1.00  0.00     0.274 HD
ATOM  10829  N   DYP   151      11.867  51.964 -17.575  1.00  0.00    -0.077 N 
ATOM  10830  P   DYP   151      11.232  48.640 -20.364  1.00  0.00     0.408 P 
ATOM  10831  C1  DYP   151      11.070  46.681 -18.649  1.00  0.00     0.216 C 
ATOM  10832  C2  DYP   151      12.000  46.437 -17.430  1.00  0.00     0.180 C 
ATOM  10833  C3  DYP   151      13.496  46.406 -17.806  1.00  0.00     0.213 C 
ATOM  10834  C11 DYP   151      10.388  50.957 -19.551  1.00  0.00     0.209 C 
ATOM  10835  O11 DYP   151      10.943  48.077 -18.921  1.00  0.00    -0.287 OA
ATOM  10836  C12 DYP   151      10.562  51.321 -18.054  1.00  0.00     0.262 C 
ATOM  10837  O12 DYP   151      11.451  50.177 -20.058  1.00  0.00    -0.288 OA
ATOM  10838  C13 DYP   151      12.981  50.955 -17.656  1.00  0.00     0.271 C 
ATOM  10839  O13 DYP   151      12.532  48.134 -20.839  1.00  0.00    -0.624 OA
ATOM  10840  C14 DYP   151      11.769  52.369 -16.141  1.00  0.00     0.271 C 
ATOM  10841  O14 DYP   151      10.022  48.442 -21.193  1.00  0.00    -0.624 OA
ATOM  10842  C15 DYP   151      12.242  53.160 -18.400  1.00  0.00     0.271 C 
ATOM  10843  C21 DYP   151      10.906  47.248 -15.575  1.00  0.00     0.259 C 
ATOM  10844  O21 DYP   151      11.852  47.488 -16.449  1.00  0.00    -0.312 OA
ATOM  10845  C22 DYP   151      10.622  48.531 -14.792  1.00  0.00     0.111 C 
ATOM  10846  O22 DYP   151      10.292  46.203 -15.448  1.00  0.00    -0.265 OA
ATOM  10847  C23 DYP   151       9.230  48.512 -14.148  1.00  0.00     0.010 C 
ATOM  10848  C24 DYP   151       9.220  48.042 -12.698  1.00  0.00     0.000 C 
ATOM  10849  C25 DYP   151       9.802  46.633 -12.444  1.00  0.00     0.000 C 
ATOM  10850  C26 DYP   151      10.084  46.324 -10.978  1.00  0.00     0.000 C 
ATOM  10851  C27 DYP   151       8.942  46.602 -10.011  1.00  0.00     0.004 C 
ATOM  10852  C28 DYP   151       9.436  47.110  -8.653  1.00  0.00     0.027 C 
ATOM  10853  C29 DYP   151      10.435  46.077  -8.320  1.00  0.00    -0.031 C 
ATOM  10854  C31 DYP   151      15.279  46.683 -16.289  1.00  0.00     0.258 C 
ATOM  10855  O31 DYP   151      14.196  46.023 -16.617  1.00  0.00    -0.319 OA
ATOM  10856  C32 DYP   151      15.609  46.332 -14.838  1.00  0.00     0.111 C 
ATOM  10857  O32 DYP   151      15.891  47.472 -16.986  1.00  0.00    -0.265 OA
ATOM  10858  C33 DYP   151      14.626  47.030 -13.878  1.00  0.00     0.010 C 
ATOM  10859  C34 DYP   151      15.093  46.952 -12.421  1.00  0.00     0.000 C 
ATOM  10860  C35 DYP   151      14.044  47.481 -11.438  1.00  0.00     0.000 C 
ATOM  10861  C36 DYP   151      14.596  47.714 -10.036  1.00  0.00     0.000 C 
ATOM  10862  C37 DYP   151      14.589  46.442  -9.185  1.00  0.00     0.004 C 
ATOM  10863  C38 DYP   151      14.538  46.875  -7.693  1.00  0.00     0.027 C 
ATOM  10864  C39 DYP   151      14.247  45.841  -6.612  1.00  0.00    -0.031 C 
ATOM  10865  C21 DYP   151      10.089  45.113  -7.558  1.00  0.00    -0.031 C 
ATOM  10866  C21 DYP   151       8.861  44.849  -6.926  1.00  0.00     0.027 C 
ATOM  10867  C21 DYP   151       8.569  45.632  -5.597  1.00  0.00     0.004 C 
ATOM  10868  C21 DYP   151       9.510  45.360  -4.356  1.00  0.00     0.000 C 
ATOM  10869  C21 DYP   151       9.173  45.031  -2.877  1.00  0.00    -0.000 C 
ATOM  10870  C21 DYP   151       8.353  46.126  -2.367  1.00  0.00    -0.005 C 
ATOM  10871  C21 DYP   151       7.892  45.837  -0.990  1.00  0.00     0.005 C 
ATOM  10872  C31 DYP   151      14.518  46.019  -5.300  1.00  0.00    -0.031 C 
ATOM  10873  C31 DYP   151      15.190  47.262  -4.714  1.00  0.00     0.027 C 
ATOM  10874  C31 DYP   151      15.624  47.133  -3.226  1.00  0.00     0.004 C 
ATOM  10875  C31 DYP   151      14.577  46.349  -2.446  1.00  0.00     0.000 C 
ATOM  10876  C31 DYP   151      14.614  46.577  -0.947  1.00  0.00    -0.000 C 
ATOM  10877  C31 DYP   151      13.579  45.701  -0.268  1.00  0.00    -0.005 C 
ATOM  10878  C31 DYP   151      13.630  45.662   1.250  1.00  0.00     0.005 C 
ATOM  10879  P   POP   152      32.072  39.790 -19.540  1.00  0.00     0.408 P 
ATOM  10880  C1  POP   152      33.295  41.932 -18.551  1.00  0.00     0.216 C 
ATOM  10881  C2  POP   152      34.498  41.270 -17.823  1.00  0.00     0.180 C 
ATOM  10882  O2  POP   152      35.397  38.304 -20.688  1.00  0.00    -0.390 OA
ATOM  10883  C3  POP   152      35.600  42.298 -17.422  1.00  0.00     0.213 C 
ATOM  10884  O3  POP   152      34.978  35.887 -22.298  1.00  0.00    -0.390 OA
ATOM  10885  O4  POP   152      35.666  37.131 -24.829  1.00  0.00    -0.390 OA
ATOM  10886  O5  POP   152      35.584  39.959 -24.913  1.00  0.00    -0.390 OA
ATOM  10887  O6  POP   152      33.759  41.278 -23.106  1.00  0.00    -0.390 OA
ATOM  10888  C11 POP   152      33.546  39.314 -21.800  1.00  0.00     0.197 C 
ATOM  10889  O11 POP   152      32.144  41.090 -18.632  1.00  0.00    -0.287 OA
ATOM  10890  C12 POP   152      34.211  38.010 -21.418  1.00  0.00     0.181 C 
ATOM  10891  O12 POP   152      33.261  40.134 -20.656  1.00  0.00    -0.279 OA
ATOM  10892  C13 POP   152      34.485  37.168 -22.661  1.00  0.00     0.180 C 
ATOM  10893  O13 POP   152      32.418  38.559 -18.801  1.00  0.00    -0.624 OA
ATOM  10894  C14 POP   152      35.403  37.903 -23.638  1.00  0.00     0.180 C 
ATOM  10895  O14 POP   152      30.844  39.782 -20.352  1.00  0.00    -0.624 OA
ATOM  10896  C15 POP   152      34.759  39.235 -23.999  1.00  0.00     0.180 C 
ATOM  10897  C16 POP   152      34.451  40.080 -22.760  1.00  0.00     0.181 C 
ATOM  10898  C21 POP   152      34.728  39.697 -16.135  1.00  0.00     0.259 C 
ATOM  10899  O21 POP   152      33.998  40.651 -16.643  1.00  0.00    -0.312 OA
ATOM  10900  C22 POP   152      34.298  39.554 -14.678  1.00  0.00     0.111 C 
ATOM  10901  O22 POP   152      35.649  39.097 -16.665  1.00  0.00    -0.265 OA
ATOM  10902  C23 POP   152      34.403  40.882 -13.869  1.00  0.00     0.010 C 
ATOM  10903  C24 POP   152      33.892  40.744 -12.429  1.00  0.00     0.000 C 
ATOM  10904  C25 POP   152      32.396  40.420 -12.362  1.00  0.00     0.000 C 
ATOM  10905  C26 POP   152      31.760  40.645 -10.976  1.00  0.00     0.000 C 
ATOM  10906  C27 POP   152      32.466  39.920  -9.811  1.00  0.00     0.004 C 
ATOM  10907  C28 POP   152      31.649  39.995  -8.501  1.00  0.00     0.027 C 
ATOM  10908  C29 POP   152      31.467  41.358  -7.878  1.00  0.00    -0.031 C 
ATOM  10909  C31 POP   152      35.475  43.778 -15.563  1.00  0.00     0.258 C 
ATOM  10910  O31 POP   152      35.012  43.428 -16.747  1.00  0.00    -0.319 OA
ATOM  10911  C32 POP   152      34.518  44.797 -14.945  1.00  0.00     0.111 C 
ATOM  10912  O32 POP   152      36.480  43.354 -15.026  1.00  0.00    -0.265 OA
ATOM  10913  C33 POP   152      34.481  44.699 -13.399  1.00  0.00     0.010 C 
ATOM  10914  C34 POP   152      33.320  45.504 -12.782  1.00  0.00     0.000 C 
ATOM  10915  C35 POP   152      33.038  45.125 -11.318  1.00  0.00     0.000 C 
ATOM  10916  C36 POP   152      34.115  45.593 -10.322  1.00  0.00     0.000 C 
ATOM  10917  C37 POP   152      34.144  44.673  -9.077  1.00  0.00     0.000 C 
ATOM  10918  C38 POP   152      35.348  44.795  -8.127  1.00  0.00     0.000 C 
ATOM  10919  C39 POP   152      35.290  43.830  -6.919  1.00  0.00     0.000 C 
ATOM  10920  C21 POP   152      32.023  41.815  -6.736  1.00  0.00    -0.031 C 
ATOM  10921  C21 POP   152      32.959  41.062  -5.821  1.00  0.00     0.027 C 
ATOM  10922  C21 POP   152      32.463  41.124  -4.368  1.00  0.00     0.004 C 
ATOM  10923  C21 POP   152      33.333  40.324  -3.427  1.00  0.00     0.000 C 
ATOM  10924  C21 POP   152      32.974  38.845  -3.534  1.00  0.00     0.000 C 
ATOM  10925  C21 POP   152      33.852  38.013  -2.690  1.00  0.00     0.000 C 
ATOM  10926  C21 POP   152      35.216  38.436  -3.021  1.00  0.00    -0.000 C 
ATOM  10927  C21 POP   152      35.923  37.520  -2.168  1.00  0.00    -0.005 C 
ATOM  10928  C21 POP   152      35.977  37.459  -0.701  1.00  0.00     0.005 C 
ATOM  10929  C31 POP   152      36.365  44.124  -5.856  1.00  0.00     0.000 C 
ATOM  10930  C31 POP   152      36.917  42.900  -5.102  1.00  0.00     0.000 C 
ATOM  10931  C31 POP   152      37.826  43.360  -3.944  1.00  0.00     0.000 C 
ATOM  10932  C31 POP   152      37.769  42.513  -2.650  1.00  0.00     0.000 C 
ATOM  10933  C31 POP   152      36.432  42.768  -1.921  1.00  0.00    -0.000 C 
ATOM  10934  C31 POP   152      36.113  42.014  -0.614  1.00  0.00    -0.005 C 
ATOM  10935  C31 POP   152      34.622  42.154  -0.254  1.00  0.00     0.005 C 
ATOM  10936  HO2 POP   152      35.247  39.206 -20.373  1.00  0.00     0.210 HD
ATOM  10937  HO3 POP   152      34.329  35.471 -21.729  1.00  0.00     0.210 HD
ATOM  10938  HO4 POP   152      36.556  37.329 -25.159  1.00  0.00     0.210 HD
ATOM  10939  HO5 POP   152      34.973  40.584 -25.310  1.00  0.00     0.210 HD
ATOM  10940  HO6 POP   152      32.966  41.224 -22.550  1.00  0.00     0.210 HD
ATOM  10941  N   DYP   153      50.701  15.312 -20.783  1.00  0.00    -0.077 N 
ATOM  10942  P   DYP   153      49.233  17.859 -17.414  1.00  0.00     0.408 P 
ATOM  10943  C1  DYP   153      50.833  17.967 -15.438  1.00  0.00     0.216 C 
ATOM  10944  C2  DYP   153      51.221  17.475 -14.024  1.00  0.00     0.180 C 
ATOM  10945  C3  DYP   153      52.105  18.533 -13.288  1.00  0.00     0.213 C 
ATOM  10946  C11 DYP   153      51.052  16.223 -18.331  1.00  0.00     0.209 C 
ATOM  10947  O11 DYP   153      49.651  17.343 -15.971  1.00  0.00    -0.287 OA
ATOM  10948  C12 DYP   153      51.383  15.169 -19.432  1.00  0.00     0.262 C 
ATOM  10949  O12 DYP   153      49.683  16.647 -18.337  1.00  0.00    -0.288 OA
ATOM  10950  C13 DYP   153      49.269  14.870 -20.662  1.00  0.00     0.271 C 
ATOM  10951  O13 DYP   153      47.769  17.985 -17.531  1.00  0.00    -0.624 OA
ATOM  10952  C14 DYP   153      51.490  14.528 -21.777  1.00  0.00     0.271 C 
ATOM  10953  O14 DYP   153      50.046  19.041 -17.763  1.00  0.00    -0.624 OA
ATOM  10954  C15 DYP   153      50.682  16.725 -21.218  1.00  0.00     0.271 C 
ATOM  10955  C21 DYP   153      49.983  16.227 -12.490  1.00  0.00     0.259 C 
ATOM  10956  O21 DYP   153      50.005  17.253 -13.298  1.00  0.00    -0.312 OA
ATOM  10957  C22 DYP   153      48.575  16.088 -11.897  1.00  0.00     0.111 C 
ATOM  10958  O22 DYP   153      50.915  15.483 -12.241  1.00  0.00    -0.265 OA
ATOM  10959  C23 DYP   153      47.828  17.418 -11.622  1.00  0.00     0.010 C 
ATOM  10960  C24 DYP   153      48.041  17.982 -10.212  1.00  0.00     0.000 C 
ATOM  10961  C25 DYP   153      49.508  17.997  -9.820  1.00  0.00     0.000 C 
ATOM  10962  C26 DYP   153      49.803  18.560  -8.452  1.00  0.00     0.000 C 
ATOM  10963  C27 DYP   153      51.334  18.870  -8.470  1.00  0.00     0.004 C 
ATOM  10964  C28 DYP   153      52.073  18.549  -7.160  1.00  0.00     0.027 C 
ATOM  10965  C29 DYP   153      51.385  19.014  -5.940  1.00  0.00    -0.031 C 
ATOM  10966  C31 DYP   153      53.680  17.503 -11.903  1.00  0.00     0.258 C 
ATOM  10967  O31 DYP   153      52.467  18.048 -11.976  1.00  0.00    -0.319 OA
ATOM  10968  C32 DYP   153      53.751  16.492 -10.749  1.00  0.00     0.111 C 
ATOM  10969  O32 DYP   153      54.610  17.765 -12.643  1.00  0.00    -0.265 OA
ATOM  10970  C33 DYP   153      54.251  15.083 -11.180  1.00  0.00     0.010 C 
ATOM  10971  C34 DYP   153      54.647  14.123 -10.031  1.00  0.00     0.000 C 
ATOM  10972  C35 DYP   153      53.693  13.952  -8.836  1.00  0.00     0.000 C 
ATOM  10973  C36 DYP   153      52.338  13.312  -9.174  1.00  0.00     0.000 C 
ATOM  10974  C37 DYP   153      51.450  13.185  -7.927  1.00  0.00     0.004 C 
ATOM  10975  C38 DYP   153      50.034  12.626  -8.193  1.00  0.00     0.027 C 
ATOM  10976  C39 DYP   153      49.155  13.536  -9.035  1.00  0.00    -0.031 C 
ATOM  10977  C21 DYP   153      50.882  18.581  -4.784  1.00  0.00    -0.031 C 
ATOM  10978  C21 DYP   153      50.933  17.177  -4.400  1.00  0.00     0.027 C 
ATOM  10979  C21 DYP   153      51.945  17.004  -3.267  1.00  0.00     0.004 C 
ATOM  10980  C21 DYP   153      51.662  17.712  -1.929  1.00  0.00     0.000 C 
ATOM  10981  C21 DYP   153      52.804  17.299  -0.983  1.00  0.00    -0.000 C 
ATOM  10982  C21 DYP   153      52.529  17.327   0.522  1.00  0.00    -0.005 C 
ATOM  10983  C21 DYP   153      52.509  18.721   1.160  1.00  0.00     0.005 C 
ATOM  10984  C31 DYP   153      47.982  14.101  -8.702  1.00  0.00    -0.031 C 
ATOM  10985  C31 DYP   153      47.254  13.960  -7.409  1.00  0.00     0.027 C 
ATOM  10986  C31 DYP   153      47.521  14.916  -6.227  1.00  0.00     0.004 C 
ATOM  10987  C31 DYP   153      46.716  14.593  -4.935  1.00  0.00     0.000 C 
ATOM  10988  C31 DYP   153      47.011  13.246  -4.210  1.00  0.00    -0.000 C 
ATOM  10989  C31 DYP   153      48.435  13.080  -3.635  1.00  0.00    -0.005 C 
ATOM  10990  C31 DYP   153      48.867  11.634  -3.305  1.00  0.00     0.005 C 
ATOM  10991  N   POP   154      -0.611  53.513 -18.384  1.00  0.00    -0.063 N 
ATOM  10992  P   POP   154      -3.654  50.928 -20.381  1.00  0.00     0.408 P 
ATOM  10993  C1  POP   154      -4.385  49.750 -18.203  1.00  0.00     0.216 C 
ATOM  10994  C2  POP   154      -5.510  49.803 -17.157  1.00  0.00     0.180 C 
ATOM  10995  C3  POP   154      -5.289  48.715 -16.125  1.00  0.00     0.213 C 
ATOM  10996  C11 POP   154      -2.957  52.875 -18.785  1.00  0.00     0.225 C 
ATOM  10997  O11 POP   154      -4.622  50.779 -19.140  1.00  0.00    -0.287 OA
ATOM  10998  C12 POP   154      -1.962  54.048 -18.652  1.00  0.00     0.307 C 
ATOM  10999  O12 POP   154      -2.617  52.052 -19.906  1.00  0.00    -0.287 OA
ATOM  11000  C13 POP   154      -2.383  55.022 -17.533  1.00  0.00     0.206 C 
ATOM  11001  O13 POP   154      -2.960  49.644 -20.616  1.00  0.00    -0.624 OA
ATOM  11002  O13 POP   154      -1.524  55.344 -16.673  1.00  0.00    -0.646 OA
ATOM  11003  O13 POP   154      -3.536  55.502 -17.561  1.00  0.00    -0.646 OA
ATOM  11004  O14 POP   154      -4.505  51.514 -21.441  1.00  0.00    -0.624 OA
ATOM  11005  C21 POP   154      -6.419  51.931 -17.003  1.00  0.00     0.259 C 
ATOM  11006  O21 POP   154      -5.592  51.053 -16.480  1.00  0.00    -0.312 OA
ATOM  11007  C22 POP   154      -6.208  53.251 -16.270  1.00  0.00     0.111 C 
ATOM  11008  O22 POP   154      -7.229  51.742 -17.909  1.00  0.00    -0.265 OA
ATOM  11009  C23 POP   154      -6.749  53.174 -14.823  1.00  0.00     0.010 C 
ATOM  11010  C24 POP   154      -6.606  54.481 -14.039  1.00  0.00     0.000 C 
ATOM  11011  C25 POP   154      -5.162  54.980 -13.849  1.00  0.00     0.000 C 
ATOM  11012  C26 POP   154      -4.331  54.179 -12.840  1.00  0.00     0.000 C 
ATOM  11013  C27 POP   154      -5.041  53.959 -11.497  1.00  0.00     0.004 C 
ATOM  11014  C28 POP   154      -4.047  53.642 -10.374  1.00  0.00     0.027 C 
ATOM  11015  C29 POP   154      -4.683  53.061  -9.142  1.00  0.00    -0.031 C 
ATOM  11016  C31 POP   154      -4.109  48.568 -14.121  1.00  0.00     0.258 C 
ATOM  11017  O31 POP   154      -4.027  48.780 -15.434  1.00  0.00    -0.319 OA
ATOM  11018  C32 POP   154      -2.728  48.780 -13.489  1.00  0.00     0.111 C 
ATOM  11019  O32 POP   154      -5.146  48.378 -13.510  1.00  0.00    -0.265 OA
ATOM  11020  C33 POP   154      -2.343  47.852 -12.304  1.00  0.00     0.010 C 
ATOM  11021  C34 POP   154      -2.848  48.405 -10.963  1.00  0.00     0.000 C 
ATOM  11022  C35 POP   154      -2.564  47.500  -9.776  1.00  0.00     0.000 C 
ATOM  11023  C36 POP   154      -2.894  48.129  -8.401  1.00  0.00     0.000 C 
ATOM  11024  C37 POP   154      -3.323  47.230  -7.221  1.00  0.00     0.000 C 
ATOM  11025  C38 POP   154      -2.987  47.799  -5.828  1.00  0.00     0.000 C 
ATOM  11026  C39 POP   154      -3.483  49.224  -5.627  1.00  0.00     0.000 C 
ATOM  11027  C21 POP   154      -4.587  53.624  -7.943  1.00  0.00    -0.031 C 
ATOM  11028  C21 POP   154      -3.840  54.909  -7.702  1.00  0.00     0.027 C 
ATOM  11029  C21 POP   154      -2.479  55.011  -7.137  1.00  0.00     0.004 C 
ATOM  11030  C21 POP   154      -2.464  54.219  -5.818  1.00  0.00     0.000 C 
ATOM  11031  C21 POP   154      -3.257  54.760  -4.601  1.00  0.00     0.000 C 
ATOM  11032  C21 POP   154      -3.242  53.787  -3.399  1.00  0.00     0.000 C 
ATOM  11033  C21 POP   154      -1.878  53.362  -2.829  1.00  0.00    -0.000 C 
ATOM  11034  C21 POP   154      -0.913  54.531  -2.606  1.00  0.00    -0.005 C 
ATOM  11035  C21 POP   154      -1.443  55.678  -1.747  1.00  0.00     0.005 C 
ATOM  11036  C31 POP   154      -3.089  49.801  -4.266  1.00  0.00     0.000 C 
ATOM  11037  C31 POP   154      -3.651  49.032  -3.056  1.00  0.00     0.000 C 
ATOM  11038  C31 POP   154      -2.531  48.591  -2.104  1.00  0.00     0.000 C 
ATOM  11039  C31 POP   154      -3.085  47.981  -0.810  1.00  0.00     0.000 C 
ATOM  11040  C31 POP   154      -2.055  47.886   0.320  1.00  0.00    -0.000 C 
ATOM  11041  C31 POP   154      -2.696  47.586   1.675  1.00  0.00    -0.005 C 
ATOM  11042  C31 POP   154      -3.317  46.197   1.721  1.00  0.00     0.005 C 
ATOM  11043  HN1 POP   154      -0.291  52.872 -19.145  1.00  0.00     0.275 HD
ATOM  11044  HN2 POP   154       0.045  54.293 -18.178  1.00  0.00     0.275 HD
ATOM  11045  HN3 POP   154      -0.766  52.987 -17.502  1.00  0.00     0.275 HD
ATOM  11046  P   POP   155     -15.492  50.829 -20.046  1.00  0.00     0.408 P 
ATOM  11047  C1  POP   155     -13.590  50.429 -18.257  1.00  0.00     0.216 C 
ATOM  11048  C2  POP   155     -13.878  50.549 -16.738  1.00  0.00     0.180 C 
ATOM  11049  O2  POP   155     -14.340  49.814 -23.725  1.00  0.00    -0.390 OA
ATOM  11050  C3  POP   155     -14.571  51.915 -16.449  1.00  0.00     0.213 C 
ATOM  11051  O3  POP   155     -15.960  50.963 -25.645  1.00  0.00    -0.390 OA
ATOM  11052  O4  POP   155     -14.113  52.991 -26.257  1.00  0.00    -0.390 OA
ATOM  11053  O5  POP   155     -12.001  53.549 -24.381  1.00  0.00    -0.390 OA
ATOM  11054  O6  POP   155     -12.582  52.979 -21.626  1.00  0.00    -0.390 OA
ATOM  11055  C11 POP   155     -14.494  51.745 -22.292  1.00  0.00     0.197 C 
ATOM  11056  O11 POP   155     -14.763  49.987 -18.939  1.00  0.00    -0.287 OA
ATOM  11057  C12 POP   155     -15.145  50.928 -23.382  1.00  0.00     0.181 C 
ATOM  11058  O12 POP   155     -14.297  50.941 -21.132  1.00  0.00    -0.279 OA
ATOM  11059  C13 POP   155     -15.355  51.752 -24.614  1.00  0.00     0.180 C 
ATOM  11060  O13 POP   155     -16.580  50.032 -20.644  1.00  0.00    -0.624 OA
ATOM  11061  C14 POP   155     -13.979  52.255 -25.045  1.00  0.00     0.180 C 
ATOM  11062  O14 POP   155     -15.785  52.189 -19.554  1.00  0.00    -0.624 OA
ATOM  11063  C15 POP   155     -13.290  53.033 -23.931  1.00  0.00     0.180 C 
ATOM  11064  C16 POP   155     -13.128  52.216 -22.700  1.00  0.00     0.181 C 
ATOM  11065  C21 POP   155     -14.241  48.279 -16.269  1.00  0.00     0.259 C 
ATOM  11066  O21 POP   155     -14.735  49.495 -16.269  1.00  0.00    -0.312 OA
ATOM  11067  C22 POP   155     -15.339  47.322 -15.799  1.00  0.00     0.111 C 
ATOM  11068  O22 POP   155     -13.078  47.961 -16.456  1.00  0.00    -0.265 OA
ATOM  11069  C23 POP   155     -14.939  46.755 -14.408  1.00  0.00     0.010 C 
ATOM  11070  C24 POP   155     -14.883  47.828 -13.286  1.00  0.00     0.000 C 
ATOM  11071  C25 POP   155     -14.268  47.369 -11.948  1.00  0.00     0.000 C 
ATOM  11072  C26 POP   155     -14.364  48.438 -10.846  1.00  0.00     0.000 C 
ATOM  11073  C27 POP   155     -13.240  49.479 -10.886  1.00  0.00     0.004 C 
ATOM  11074  C28 POP   155     -13.143  50.216  -9.544  1.00  0.00     0.027 C 
ATOM  11075  C29 POP   155     -12.182  51.374  -9.613  1.00  0.00    -0.031 C 
ATOM  11076  C31 POP   155     -16.121  51.865 -14.673  1.00  0.00     0.258 C 
ATOM  11077  O31 POP   155     -14.855  52.094 -15.042  1.00  0.00    -0.319 OA
ATOM  11078  C32 POP   155     -16.277  52.071 -13.169  1.00  0.00     0.111 C 
ATOM  11079  O32 POP   155     -17.037  51.580 -15.417  1.00  0.00    -0.265 OA
ATOM  11080  C33 POP   155     -17.354  51.161 -12.510  1.00  0.00     0.010 C 
ATOM  11081  C34 POP   155     -17.199  51.217 -10.973  1.00  0.00     0.000 C 
ATOM  11082  C35 POP   155     -18.277  50.617 -10.033  1.00  0.00     0.000 C 
ATOM  11083  C36 POP   155     -18.352  49.075  -9.897  1.00  0.00     0.000 C 
ATOM  11084  C37 POP   155     -19.347  48.595  -8.822  1.00  0.00     0.000 C 
ATOM  11085  C38 POP   155     -19.591  47.075  -8.771  1.00  0.00     0.000 C 
ATOM  11086  C39 POP   155     -18.343  46.201  -8.587  1.00  0.00     0.000 C 
ATOM  11087  C21 POP   155     -12.381  52.708  -9.659  1.00  0.00    -0.031 C 
ATOM  11088  C21 POP   155     -13.663  53.517  -9.659  1.00  0.00     0.027 C 
ATOM  11089  C21 POP   155     -14.791  53.121  -8.677  1.00  0.00     0.004 C 
ATOM  11090  C21 POP   155     -14.389  53.345  -7.209  1.00  0.00     0.000 C 
ATOM  11091  C21 POP   155     -15.434  52.871  -6.174  1.00  0.00     0.000 C 
ATOM  11092  C21 POP   155     -15.509  51.350  -5.868  1.00  0.00     0.000 C 
ATOM  11093  C21 POP   155     -16.725  50.808  -5.080  1.00  0.00    -0.000 C 
ATOM  11094  C21 POP   155     -16.807  51.512  -3.748  1.00  0.00    -0.005 C 
ATOM  11095  C21 POP   155     -17.723  51.165  -2.594  1.00  0.00     0.005 C 
ATOM  11096  C31 POP   155     -17.410  46.621  -7.439  1.00  0.00     0.000 C 
ATOM  11097  C31 POP   155     -15.986  46.079  -7.626  1.00  0.00     0.000 C 
ATOM  11098  C31 POP   155     -14.929  46.739  -6.730  1.00  0.00     0.000 C 
ATOM  11099  C31 POP   155     -13.586  46.007  -6.835  1.00  0.00     0.000 C 
ATOM  11100  C31 POP   155     -12.382  46.821  -6.351  1.00  0.00    -0.000 C 
ATOM  11101  C31 POP   155     -11.962  46.498  -4.934  1.00  0.00    -0.005 C 
ATOM  11102  C31 POP   155     -12.886  47.073  -3.890  1.00  0.00     0.005 C 
ATOM  11103  HO2 POP   155     -14.916  49.047 -23.732  1.00  0.00     0.210 HD
ATOM  11104  HO3 POP   155     -15.302  50.979 -26.344  1.00  0.00     0.210 HD
ATOM  11105  HO4 POP   155     -13.285  53.033 -26.762  1.00  0.00     0.210 HD
ATOM  11106  HO5 POP   155     -11.781  54.456 -24.126  1.00  0.00     0.210 HD
ATOM  11107  HO6 POP   155     -11.622  53.060 -21.640  1.00  0.00     0.210 HD
ATOM  11108  N   POP   156      18.499 -50.498 -21.550  1.00  0.00    -0.063 N 
ATOM  11109  P   POP   156      19.927 -48.773 -17.839  1.00  0.00     0.408 P 
ATOM  11110  C1  POP   156      18.471 -50.304 -16.278  1.00  0.00     0.216 C 
ATOM  11111  C2  POP   156      17.961 -49.465 -15.072  1.00  0.00     0.180 C 
ATOM  11112  C3  POP   156      16.860 -50.215 -14.261  1.00  0.00     0.213 C 
ATOM  11113  C11 POP   156      19.697 -50.788 -19.413  1.00  0.00     0.225 C 
ATOM  11114  O11 POP   156      19.756 -49.860 -16.713  1.00  0.00    -0.287 OA
ATOM  11115  C12 POP   156      18.730 -51.444 -20.425  1.00  0.00     0.307 C 
ATOM  11116  O12 POP   156      19.219 -49.464 -19.083  1.00  0.00    -0.287 OA
ATOM  11117  C13 POP   156      17.409 -51.731 -19.696  1.00  0.00     0.206 C 
ATOM  11118  O13 POP   156      19.184 -47.533 -17.532  1.00  0.00    -0.624 OA
ATOM  11119  O13 POP   156      16.377 -51.091 -20.036  1.00  0.00    -0.646 OA
ATOM  11120  O13 POP   156      17.423 -52.607 -18.800  1.00  0.00    -0.646 OA
ATOM  11121  O14 POP   156      21.352 -48.645 -18.199  1.00  0.00    -0.624 OA
ATOM  11122  C21 POP   156      18.843 -48.268 -13.289  1.00  0.00     0.259 C 
ATOM  11123  O21 POP   156      19.077 -49.141 -14.225  1.00  0.00    -0.312 OA
ATOM  11124  C22 POP   156      20.067 -48.230 -12.377  1.00  0.00     0.111 C 
ATOM  11125  O22 POP   156      17.812 -47.641 -13.115  1.00  0.00    -0.265 OA
ATOM  11126  C23 POP   156      19.880 -49.197 -11.179  1.00  0.00     0.010 C 
ATOM  11127  C24 POP   156      21.117 -49.316 -10.273  1.00  0.00     0.000 C 
ATOM  11128  C25 POP   156      20.840 -49.313  -8.750  1.00  0.00     0.000 C 
ATOM  11129  C26 POP   156      20.351 -48.021  -8.062  1.00  0.00     0.000 C 
ATOM  11130  C27 POP   156      20.494 -48.103  -6.520  1.00  0.00     0.004 C 
ATOM  11131  C28 POP   156      19.176 -47.862  -5.759  1.00  0.00     0.027 C 
ATOM  11132  C29 POP   156      18.245 -49.014  -5.998  1.00  0.00    -0.031 C 
ATOM  11133  C31 POP   156      17.298 -52.540 -13.971  1.00  0.00     0.258 C 
ATOM  11134  O31 POP   156      17.476 -51.307 -13.568  1.00  0.00    -0.319 OA
ATOM  11135  C32 POP   156      18.162 -53.428 -13.101  1.00  0.00     0.111 C 
ATOM  11136  O32 POP   156      16.524 -52.945 -14.816  1.00  0.00    -0.265 OA
ATOM  11137  C33 POP   156      17.217 -54.262 -12.227  1.00  0.00     0.010 C 
ATOM  11138  C34 POP   156      16.584 -53.430 -11.091  1.00  0.00     0.000 C 
ATOM  11139  C35 POP   156      17.562 -53.047  -9.977  1.00  0.00     0.000 C 
ATOM  11140  C36 POP   156      17.754 -54.190  -8.987  1.00  0.00     0.000 C 
ATOM  11141  C37 POP   156      18.746 -53.797  -7.895  1.00  0.00     0.000 C 
ATOM  11142  C38 POP   156      18.825 -54.896  -6.839  1.00  0.00     0.000 C 
ATOM  11143  C39 POP   156      19.465 -54.467  -5.516  1.00  0.00     0.000 C 
ATOM  11144  C21 POP   156      16.987 -49.121  -5.545  1.00  0.00    -0.031 C 
ATOM  11145  C21 POP   156      16.245 -48.115  -4.700  1.00  0.00     0.027 C 
ATOM  11146  C21 POP   156      16.529 -48.346  -3.194  1.00  0.00     0.004 C 
ATOM  11147  C21 POP   156      16.269 -49.773  -2.653  1.00  0.00     0.000 C 
ATOM  11148  C21 POP   156      16.696 -49.998  -1.186  1.00  0.00     0.000 C 
ATOM  11149  C21 POP   156      16.258 -51.386  -0.704  1.00  0.00     0.000 C 
ATOM  11150  C21 POP   156      16.905 -51.876   0.588  1.00  0.00    -0.000 C 
ATOM  11151  C21 POP   156      16.891 -50.854   1.726  1.00  0.00    -0.005 C 
ATOM  11152  C21 POP   156      17.016 -51.559   3.077  1.00  0.00     0.005 C 
ATOM  11153  C31 POP   156      20.823 -53.784  -5.721  1.00  0.00     0.000 C 
ATOM  11154  C31 POP   156      21.362 -53.082  -4.476  1.00  0.00     0.000 C 
ATOM  11155  C31 POP   156      20.672 -51.737  -4.213  1.00  0.00     0.000 C 
ATOM  11156  C31 POP   156      21.148 -51.107  -2.898  1.00  0.00     0.000 C 
ATOM  11157  C31 POP   156      20.132 -50.107  -2.352  1.00  0.00    -0.000 C 
ATOM  11158  C31 POP   156      20.353 -49.706  -0.889  1.00  0.00    -0.005 C 
ATOM  11159  C31 POP   156      19.973 -48.234  -0.731  1.00  0.00     0.005 C 
ATOM  11160  HN1 POP   156      18.003 -49.723 -21.048  1.00  0.00     0.275 HD
ATOM  11161  HN2 POP   156      19.408 -50.231 -21.969  1.00  0.00     0.275 HD
ATOM  11162  HN3 POP   156      17.852 -50.968 -22.210  1.00  0.00     0.275 HD
ATOM  11163  P   POP   157      53.991  -7.889 -19.760  1.00  0.00     0.408 P 
ATOM  11164  C1  POP   157      52.194  -8.434 -18.079  1.00  0.00     0.216 C 
ATOM  11165  C2  POP   157      51.712  -7.070 -17.552  1.00  0.00     0.180 C 
ATOM  11166  O2  POP   157      51.661  -7.911 -22.951  1.00  0.00    -0.390 OA
ATOM  11167  C3  POP   157      50.320  -7.253 -16.927  1.00  0.00     0.213 C 
ATOM  11168  O3  POP   157      53.177  -6.507 -25.099  1.00  0.00    -0.390 OA
ATOM  11169  O4  POP   157      53.337  -8.966 -26.601  1.00  0.00    -0.390 OA
ATOM  11170  O5  POP   157      54.071 -11.209 -25.338  1.00  0.00    -0.390 OA
ATOM  11171  O6  POP   157      54.021 -11.273 -22.325  1.00  0.00    -0.390 OA
ATOM  11172  C11 POP   157      53.656  -8.886 -22.252  1.00  0.00     0.197 C 
ATOM  11173  O11 POP   157      53.558  -8.373 -18.364  1.00  0.00    -0.287 OA
ATOM  11174  C12 POP   157      53.050  -7.742 -22.984  1.00  0.00     0.181 C 
ATOM  11175  O12 POP   157      53.308  -8.940 -20.848  1.00  0.00    -0.279 OA
ATOM  11176  C13 POP   157      53.566  -7.676 -24.421  1.00  0.00     0.180 C 
ATOM  11177  O13 POP   157      53.442  -6.546 -19.980  1.00  0.00    -0.624 OA
ATOM  11178  C14 POP   157      53.218  -8.971 -25.152  1.00  0.00     0.180 C 
ATOM  11179  O14 POP   157      55.450  -8.072 -19.881  1.00  0.00    -0.624 OA
ATOM  11180  C15 POP   157      53.947 -10.115 -24.424  1.00  0.00     0.180 C 
ATOM  11181  C16 POP   157      53.401 -10.214 -22.996  1.00  0.00     0.181 C 
ATOM  11182  C21 POP   157      52.809  -5.342 -16.391  1.00  0.00     0.259 C 
ATOM  11183  O21 POP   157      52.664  -6.629 -16.583  1.00  0.00    -0.312 OA
ATOM  11184  C22 POP   157      54.198  -5.167 -15.755  1.00  0.00     0.111 C 
ATOM  11185  O22 POP   157      52.031  -4.461 -16.722  1.00  0.00    -0.265 OA
ATOM  11186  C23 POP   157      54.248  -4.402 -14.418  1.00  0.00     0.010 C 
ATOM  11187  C24 POP   157      53.603  -5.113 -13.214  1.00  0.00     0.000 C 
ATOM  11188  C25 POP   157      54.159  -6.531 -12.946  1.00  0.00     0.000 C 
ATOM  11189  C26 POP   157      53.923  -7.001 -11.500  1.00  0.00     0.000 C 
ATOM  11190  C27 POP   157      54.272  -8.476 -11.217  1.00  0.00     0.004 C 
ATOM  11191  C28 POP   157      54.039  -8.816  -9.731  1.00  0.00     0.027 C 
ATOM  11192  C29 POP   157      54.200 -10.278  -9.396  1.00  0.00    -0.031 C 
ATOM  11193  C31 POP   157      50.495  -8.202 -14.784  1.00  0.00     0.258 C 
ATOM  11194  O31 POP   157      50.268  -8.417 -16.072  1.00  0.00    -0.319 OA
ATOM  11195  C32 POP   157      50.383  -9.537 -14.033  1.00  0.00     0.111 C 
ATOM  11196  O32 POP   157      50.730  -7.125 -14.270  1.00  0.00    -0.265 OA
ATOM  11197  C33 POP   157      49.436  -9.479 -12.798  1.00  0.00     0.010 C 
ATOM  11198  C34 POP   157      50.030  -8.757 -11.574  1.00  0.00     0.000 C 
ATOM  11199  C35 POP   157      49.039  -8.372 -10.454  1.00  0.00     0.000 C 
ATOM  11200  C36 POP   157      49.771  -7.440  -9.475  1.00  0.00     0.000 C 
ATOM  11201  C37 POP   157      49.051  -7.081  -8.161  1.00  0.00     0.000 C 
ATOM  11202  C38 POP   157      49.817  -5.970  -7.425  1.00  0.00     0.000 C 
ATOM  11203  C39 POP   157      49.429  -5.750  -5.963  1.00  0.00     0.000 C 
ATOM  11204  C21 POP   157      53.413 -10.995  -8.562  1.00  0.00    -0.031 C 
ATOM  11205  C21 POP   157      52.212 -10.488  -7.790  1.00  0.00     0.027 C 
ATOM  11206  C21 POP   157      52.605 -10.136  -6.339  1.00  0.00     0.004 C 
ATOM  11207  C21 POP   157      51.387  -9.800  -5.458  1.00  0.00     0.000 C 
ATOM  11208  C21 POP   157      51.677  -9.526  -3.965  1.00  0.00     0.000 C 
ATOM  11209  C21 POP   157      52.747  -8.451  -3.716  1.00  0.00     0.000 C 
ATOM  11210  C21 POP   157      52.902  -8.098  -2.221  1.00  0.00    -0.000 C 
ATOM  11211  C21 POP   157      53.461  -9.245  -1.364  1.00  0.00    -0.005 C 
ATOM  11212  C21 POP   157      53.816  -8.822   0.071  1.00  0.00     0.005 C 
ATOM  11213  C31 POP   157      50.487  -4.843  -5.322  1.00  0.00     0.000 C 
ATOM  11214  C31 POP   157      50.395  -4.706  -3.813  1.00  0.00     0.000 C 
ATOM  11215  C31 POP   157      51.485  -3.763  -3.298  1.00  0.00     0.000 C 
ATOM  11216  C31 POP   157      51.333  -3.605  -1.794  1.00  0.00     0.000 C 
ATOM  11217  C31 POP   157      50.231  -2.686  -1.330  1.00  0.00    -0.000 C 
ATOM  11218  C31 POP   157      49.968  -2.939   0.184  1.00  0.00    -0.005 C 
ATOM  11219  C31 POP   157      49.336  -1.805   0.937  1.00  0.00     0.005 C 
ATOM  11220  HO2 POP   157      51.477  -8.631 -23.542  1.00  0.00     0.210 HD
ATOM  11221  HO3 POP   157      53.611  -5.740 -24.694  1.00  0.00     0.210 HD
ATOM  11222  HO4 POP   157      52.605  -8.480 -26.999  1.00  0.00     0.210 HD
ATOM  11223  HO5 POP   157      54.717 -11.842 -24.991  1.00  0.00     0.210 HD
ATOM  11224  HO6 POP   157      54.991 -11.278 -22.190  1.00  0.00     0.210 HD
ATOM  11225  P   POP   158      45.859  27.135 -19.820  1.00  0.00     0.408 P 
ATOM  11226  C1  POP   158      47.355  27.727 -17.711  1.00  0.00     0.216 C 
ATOM  11227  C2  POP   158      48.669  26.899 -17.887  1.00  0.00     0.180 C 
ATOM  11228  O2  POP   158      45.501  23.511 -21.426  1.00  0.00    -0.390 OA
ATOM  11229  C3  POP   158      49.903  27.678 -17.335  1.00  0.00     0.213 C 
ATOM  11230  O3  POP   158      44.583  23.713 -24.102  1.00  0.00    -0.390 OA
ATOM  11231  O4  POP   158      47.142  23.322 -25.370  1.00  0.00    -0.390 OA
ATOM  11232  O5  POP   158      49.455  23.899 -23.870  1.00  0.00    -0.390 OA
ATOM  11233  O6  POP   158      49.217  25.701 -21.733  1.00  0.00    -0.390 OA
ATOM  11234  C11 POP   158      46.807  25.586 -21.776  1.00  0.00     0.197 C 
ATOM  11235  O11 POP   158      46.189  27.104 -18.267  1.00  0.00    -0.287 OA
ATOM  11236  C12 POP   158      45.627  24.718 -22.186  1.00  0.00     0.181 C 
ATOM  11237  O12 POP   158      46.757  25.890 -20.381  1.00  0.00    -0.279 OA
ATOM  11238  C13 POP   158      45.736  24.421 -23.670  1.00  0.00     0.180 C 
ATOM  11239  O13 POP   158      44.428  26.867 -20.119  1.00  0.00    -0.624 OA
ATOM  11240  C14 POP   158      47.026  23.665 -23.985  1.00  0.00     0.180 C 
ATOM  11241  O14 POP   158      46.435  28.338 -20.460  1.00  0.00    -0.624 OA
ATOM  11242  C15 POP   158      48.196  24.519 -23.554  1.00  0.00     0.180 C 
ATOM  11243  C16 POP   158      48.109  24.879 -22.078  1.00  0.00     0.181 C 
ATOM  11244  C21 POP   158      48.964  24.560 -17.811  1.00  0.00     0.259 C 
ATOM  11245  O21 POP   158      48.507  25.642 -17.195  1.00  0.00    -0.312 OA
ATOM  11246  C22 POP   158      48.598  23.312 -16.979  1.00  0.00     0.111 C 
ATOM  11247  O22 POP   158      49.605  24.546 -18.844  1.00  0.00    -0.265 OA
ATOM  11248  C23 POP   158      49.314  23.263 -15.594  1.00  0.00     0.010 C 
ATOM  11249  C24 POP   158      48.638  22.483 -14.431  1.00  0.00     0.000 C 
ATOM  11250  C25 POP   158      47.149  22.739 -14.171  1.00  0.00     0.000 C 
ATOM  11251  C26 POP   158      46.905  24.057 -13.439  1.00  0.00     0.000 C 
ATOM  11252  C27 POP   158      47.136  23.977 -11.919  1.00  0.00     0.004 C 
ATOM  11253  C28 POP   158      46.221  24.951 -11.164  1.00  0.00     0.027 C 
ATOM  11254  C29 POP   158      46.892  26.298 -11.221  1.00  0.00    -0.031 C 
ATOM  11255  C31 POP   158      50.728  26.676 -15.415  1.00  0.00     0.258 C 
ATOM  11256  O31 POP   158      49.967  27.637 -15.893  1.00  0.00    -0.319 OA
ATOM  11257  C32 POP   158      50.671  26.765 -13.904  1.00  0.00     0.111 C 
ATOM  11258  O32 POP   158      51.426  25.907 -16.055  1.00  0.00    -0.265 OA
ATOM  11259  C33 POP   158      51.633  25.799 -13.254  1.00  0.00     0.010 C 
ATOM  11260  C34 POP   158      51.807  26.190 -11.801  1.00  0.00     0.000 C 
ATOM  11261  C35 POP   158      51.030  25.573 -10.682  1.00  0.00     0.000 C 
ATOM  11262  C36 POP   158      51.144  24.095 -10.829  1.00  0.00     0.000 C 
ATOM  11263  C37 POP   158      50.485  23.466  -9.680  1.00  0.00     0.000 C 
ATOM  11264  C38 POP   158      50.276  22.077 -10.083  1.00  0.00     0.000 C 
ATOM  11265  C39 POP   158      49.756  21.548  -8.817  1.00  0.00     0.000 C 
ATOM  11266  C21 POP   158      47.603  26.828 -10.209  1.00  0.00    -0.031 C 
ATOM  11267  C21 POP   158      47.834  26.167  -8.864  1.00  0.00     0.027 C 
ATOM  11268  C21 POP   158      47.207  26.988  -7.731  1.00  0.00     0.004 C 
ATOM  11269  C21 POP   158      47.341  26.235  -6.406  1.00  0.00     0.000 C 
ATOM  11270  C21 POP   158      47.052  27.063  -5.162  1.00  0.00     0.000 C 
ATOM  11271  C21 POP   158      47.325  26.199  -3.945  1.00  0.00     0.000 C 
ATOM  11272  C21 POP   158      46.990  26.915  -2.679  1.00  0.00    -0.000 C 
ATOM  11273  C21 POP   158      47.259  25.961  -1.523  1.00  0.00    -0.005 C 
ATOM  11274  C21 POP   158      46.626  24.610  -1.430  1.00  0.00     0.005 C 
ATOM  11275  C31 POP   158      50.725  21.610  -7.617  1.00  0.00     0.000 C 
ATOM  11276  C31 POP   158      50.490  22.408  -6.352  1.00  0.00     0.000 C 
ATOM  11277  C31 POP   158      51.352  21.975  -5.136  1.00  0.00     0.000 C 
ATOM  11278  C31 POP   158      51.088  22.672  -3.858  1.00  0.00     0.000 C 
ATOM  11279  C31 POP   158      51.589  24.049  -4.129  1.00  0.00    -0.000 C 
ATOM  11280  C31 POP   158      51.607  24.862  -2.872  1.00  0.00    -0.005 C 
ATOM  11281  C31 POP   158      52.709  24.417  -1.926  1.00  0.00     0.005 C 
ATOM  11282  HO2 POP   158      46.131  22.879 -21.767  1.00  0.00     0.210 HD
ATOM  11283  HO3 POP   158      44.043  24.245 -24.694  1.00  0.00     0.210 HD
ATOM  11284  HO4 POP   158      47.732  22.566 -25.460  1.00  0.00     0.210 HD
ATOM  11285  HO5 POP   158      49.655  23.859 -24.800  1.00  0.00     0.210 HD
ATOM  11286  HO6 POP   158      48.953  26.585 -21.966  1.00  0.00     0.210 HD
ATOM  11287  N   DYP   159     -25.061 -48.532 -18.944  1.00  0.00    -0.077 N 
ATOM  11288  P   DYP   159     -20.999 -49.588 -19.375  1.00  0.00     0.408 P 
ATOM  11289  C1  DYP   159     -19.437 -49.637 -17.303  1.00  0.00     0.216 C 
ATOM  11290  C2  DYP   159     -18.899 -50.541 -16.154  1.00  0.00     0.180 C 
ATOM  11291  C3  DYP   159     -18.597 -49.705 -14.860  1.00  0.00     0.213 C 
ATOM  11292  C11 DYP   159     -23.064 -49.784 -17.749  1.00  0.00     0.209 C 
ATOM  11293  O11 DYP   159     -20.023 -50.367 -18.385  1.00  0.00    -0.287 OA
ATOM  11294  C12 DYP   159     -24.401 -49.028 -17.664  1.00  0.00     0.262 C 
ATOM  11295  O12 DYP   159     -22.084 -48.994 -18.397  1.00  0.00    -0.288 OA
ATOM  11296  C13 DYP   159     -24.230 -47.514 -19.650  1.00  0.00     0.271 C 
ATOM  11297  O13 DYP   159     -20.296 -48.430 -19.986  1.00  0.00    -0.624 OA
ATOM  11298  C14 DYP   159     -26.376 -47.963 -18.520  1.00  0.00     0.271 C 
ATOM  11299  O14 DYP   159     -21.656 -50.527 -20.307  1.00  0.00    -0.624 OA
ATOM  11300  C15 DYP   159     -25.234 -49.669 -19.901  1.00  0.00     0.271 C 
ATOM  11301  C21 DYP   159     -19.301 -52.629 -15.205  1.00  0.00     0.259 C 
ATOM  11302  O21 DYP   159     -19.831 -51.597 -15.856  1.00  0.00    -0.312 OA
ATOM  11303  C22 DYP   159     -20.389 -53.651 -14.891  1.00  0.00     0.111 C 
ATOM  11304  O22 DYP   159     -18.140 -52.728 -14.849  1.00  0.00    -0.265 OA
ATOM  11305  C23 DYP   159     -21.696 -52.955 -14.446  1.00  0.00     0.010 C 
ATOM  11306  C24 DYP   159     -21.500 -52.013 -13.240  1.00  0.00     0.000 C 
ATOM  11307  C25 DYP   159     -21.425 -52.656 -11.842  1.00  0.00     0.000 C 
ATOM  11308  C26 DYP   159     -22.783 -53.166 -11.316  1.00  0.00     0.000 C 
ATOM  11309  C27 DYP   159     -22.786 -53.948  -9.989  1.00  0.00     0.004 C 
ATOM  11310  C28 DYP   159     -22.556 -53.199  -8.659  1.00  0.00     0.027 C 
ATOM  11311  C29 DYP   159     -21.382 -52.269  -8.594  1.00  0.00    -0.031 C 
ATOM  11312  C31 DYP   159     -19.634 -48.336 -13.221  1.00  0.00     0.258 C 
ATOM  11313  O31 DYP   159     -19.809 -49.175 -14.251  1.00  0.00    -0.319 OA
ATOM  11314  C32 DYP   159     -20.971 -47.612 -12.901  1.00  0.00     0.111 C 
ATOM  11315  O32 DYP   159     -18.573 -48.148 -12.656  1.00  0.00    -0.265 OA
ATOM  11316  C33 DYP   159     -21.000 -46.643 -11.669  1.00  0.00     0.010 C 
ATOM  11317  C34 DYP   159     -21.096 -47.312 -10.283  1.00  0.00     0.000 C 
ATOM  11318  C35 DYP   159     -20.363 -46.527  -9.166  1.00  0.00     0.000 C 
ATOM  11319  C36 DYP   159     -20.470 -47.187  -7.774  1.00  0.00     0.000 C 
ATOM  11320  C37 DYP   159     -19.716 -48.520  -7.723  1.00  0.00     0.004 C 
ATOM  11321  C38 DYP   159     -19.889 -49.303  -6.412  1.00  0.00     0.027 C 
ATOM  11322  C39 DYP   159     -19.285 -48.602  -5.229  1.00  0.00    -0.031 C 
ATOM  11323  C21 DYP   159     -20.101 -52.666  -8.645  1.00  0.00    -0.031 C 
ATOM  11324  C21 DYP   159     -19.593 -54.091  -8.775  1.00  0.00     0.027 C 
ATOM  11325  C21 DYP   159     -18.817 -54.468  -7.516  1.00  0.00     0.004 C 
ATOM  11326  C21 DYP   159     -19.726 -54.452  -6.270  1.00  0.00     0.000 C 
ATOM  11327  C21 DYP   159     -18.964 -54.872  -5.036  1.00  0.00    -0.000 C 
ATOM  11328  C21 DYP   159     -17.942 -53.793  -4.489  1.00  0.00    -0.005 C 
ATOM  11329  C21 DYP   159     -17.123 -53.946  -3.155  1.00  0.00     0.005 C 
ATOM  11330  C31 DYP   159     -19.718 -48.679  -3.959  1.00  0.00    -0.031 C 
ATOM  11331  C31 DYP   159     -20.892 -49.471  -3.415  1.00  0.00     0.027 C 
ATOM  11332  C31 DYP   159     -20.482 -50.719  -2.600  1.00  0.00     0.004 C 
ATOM  11333  C31 DYP   159     -21.717 -51.483  -2.067  1.00  0.00     0.000 C 
ATOM  11334  C31 DYP   159     -21.399 -52.693  -1.171  1.00  0.00    -0.000 C 
ATOM  11335  C31 DYP   159     -22.633 -53.406  -0.573  1.00  0.00    -0.005 C 
ATOM  11336  C31 DYP   159     -23.654 -53.939  -1.584  1.00  0.00     0.005 C 
ATOM  11337  P   POP   160     -23.649  49.118 -19.636  1.00  0.00     0.408 P 
ATOM  11338  C1  POP   160     -25.750  48.072 -18.572  1.00  0.00     0.216 C 
ATOM  11339  C2  POP   160     -26.910  48.372 -17.588  1.00  0.00     0.180 C 
ATOM  11340  O2  POP   160     -24.274  49.613 -23.743  1.00  0.00    -0.390 OA
ATOM  11341  C3  POP   160     -28.007  47.275 -17.581  1.00  0.00     0.213 C 
ATOM  11342  O3  POP   160     -21.849  50.011 -25.146  1.00  0.00    -0.390 OA
ATOM  11343  O4  POP   160     -21.318  47.300 -25.813  1.00  0.00    -0.390 OA
ATOM  11344  O5  POP   160     -22.731  45.262 -24.421  1.00  0.00    -0.390 OA
ATOM  11345  O6  POP   160     -23.463  45.896 -21.705  1.00  0.00    -0.390 OA
ATOM  11346  C11 POP   160     -23.111  48.234 -22.087  1.00  0.00     0.197 C 
ATOM  11347  O11 POP   160     -25.039  49.274 -18.889  1.00  0.00    -0.287 OA
ATOM  11348  C12 POP   160     -23.013  49.331 -23.136  1.00  0.00     0.181 C 
ATOM  11349  O12 POP   160     -24.117  48.609 -21.123  1.00  0.00    -0.279 OA
ATOM  11350  C13 POP   160     -21.962  48.972 -24.177  1.00  0.00     0.180 C 
ATOM  11351  O13 POP   160     -23.062  50.462 -19.794  1.00  0.00    -0.624 OA
ATOM  11352  C14 POP   160     -22.295  47.629 -24.822  1.00  0.00     0.180 C 
ATOM  11353  O14 POP   160     -22.835  48.070 -19.002  1.00  0.00    -0.624 OA
ATOM  11354  C15 POP   160     -22.404  46.518 -23.779  1.00  0.00     0.180 C 
ATOM  11355  C16 POP   160     -23.445  46.890 -22.725  1.00  0.00     0.181 C 
ATOM  11356  C21 POP   160     -27.144  49.250 -15.473  1.00  0.00     0.259 C 
ATOM  11357  O21 POP   160     -26.383  48.509 -16.254  1.00  0.00    -0.312 OA
ATOM  11358  C22 POP   160     -26.726  49.012 -14.022  1.00  0.00     0.111 C 
ATOM  11359  O22 POP   160     -28.059  49.963 -15.851  1.00  0.00    -0.265 OA
ATOM  11360  C23 POP   160     -25.664  50.019 -13.518  1.00  0.00     0.010 C 
ATOM  11361  C24 POP   160     -24.222  49.596 -13.897  1.00  0.00     0.000 C 
ATOM  11362  C25 POP   160     -23.134  50.642 -13.571  1.00  0.00     0.000 C 
ATOM  11363  C26 POP   160     -23.069  51.037 -12.089  1.00  0.00     0.000 C 
ATOM  11364  C27 POP   160     -23.205  49.814 -11.186  1.00  0.00     0.004 C 
ATOM  11365  C28 POP   160     -22.757  49.991  -9.738  1.00  0.00     0.027 C 
ATOM  11366  C29 POP   160     -23.354  51.074  -8.887  1.00  0.00    -0.031 C 
ATOM  11367  C31 POP   160     -28.039  45.361 -16.218  1.00  0.00     0.258 C 
ATOM  11368  O31 POP   160     -27.432  46.033 -17.170  1.00  0.00    -0.319 OA
ATOM  11369  C32 POP   160     -27.078  44.249 -15.808  1.00  0.00     0.111 C 
ATOM  11370  O32 POP   160     -29.141  45.570 -15.747  1.00  0.00    -0.265 OA
ATOM  11371  C33 POP   160     -25.925  44.795 -14.920  1.00  0.00     0.010 C 
ATOM  11372  C34 POP   160     -26.354  45.368 -13.565  1.00  0.00     0.000 C 
ATOM  11373  C35 POP   160     -26.643  44.294 -12.545  1.00  0.00     0.000 C 
ATOM  11374  C36 POP   160     -27.177  44.984 -11.242  1.00  0.00     0.000 C 
ATOM  11375  C37 POP   160     -27.176  44.160  -9.958  1.00  0.00     0.000 C 
ATOM  11376  C38 POP   160     -28.332  44.281  -8.869  1.00  0.00     0.000 C 
ATOM  11377  C39 POP   160     -28.014  45.358  -7.979  1.00  0.00     0.000 C 
ATOM  11378  C21 POP   160     -23.178  51.106  -7.558  1.00  0.00    -0.031 C 
ATOM  11379  C21 POP   160     -22.378  50.071  -6.800  1.00  0.00     0.027 C 
ATOM  11380  C21 POP   160     -23.286  49.319  -5.813  1.00  0.00     0.004 C 
ATOM  11381  C21 POP   160     -23.755  50.276  -4.708  1.00  0.00     0.000 C 
ATOM  11382  C21 POP   160     -24.134  49.580  -3.391  1.00  0.00     0.000 C 
ATOM  11383  C21 POP   160     -25.009  50.447  -2.469  1.00  0.00     0.000 C 
ATOM  11384  C21 POP   160     -25.420  49.769  -1.143  1.00  0.00    -0.000 C 
ATOM  11385  C21 POP   160     -26.202  48.448  -1.299  1.00  0.00    -0.005 C 
ATOM  11386  C21 POP   160     -26.593  47.810   0.023  1.00  0.00     0.005 C 
ATOM  11387  C31 POP   160     -26.611  45.002  -7.487  1.00  0.00     0.000 C 
ATOM  11388  C31 POP   160     -26.325  45.957  -6.403  1.00  0.00     0.000 C 
ATOM  11389  C31 POP   160     -24.984  45.747  -5.731  1.00  0.00     0.000 C 
ATOM  11390  C31 POP   160     -24.619  44.271  -5.488  1.00  0.00     0.000 C 
ATOM  11391  C31 POP   160     -23.425  44.070  -4.555  1.00  0.00    -0.000 C 
ATOM  11392  C31 POP   160     -23.664  44.606  -3.128  1.00  0.00    -0.005 C 
ATOM  11393  C31 POP   160     -22.392  44.745  -2.342  1.00  0.00     0.005 C 
ATOM  11394  HO2 POP   160     -24.498  50.529 -23.542  1.00  0.00     0.210 HD
ATOM  11395  HO3 POP   160     -22.744  50.128 -25.507  1.00  0.00     0.210 HD
ATOM  11396  HO4 POP   160     -20.543  46.956 -25.351  1.00  0.00     0.210 HD
ATOM  11397  HO5 POP   160     -23.452  45.450 -25.017  1.00  0.00     0.210 HD
ATOM  11398  HO6 POP   160     -22.561  45.778 -21.385  1.00  0.00     0.210 HD
ATOM  11399  N   POP   161      51.040 -16.591 -19.553  1.00  0.00    -0.063 N 
ATOM  11400  P   POP   161      53.171 -20.096 -19.282  1.00  0.00     0.408 P 
ATOM  11401  C1  POP   161      52.136 -22.210 -18.487  1.00  0.00     0.216 C 
ATOM  11402  C2  POP   161      52.028 -23.174 -17.306  1.00  0.00     0.180 C 
ATOM  11403  C3  POP   161      53.357 -23.927 -16.992  1.00  0.00     0.213 C 
ATOM  11404  C11 POP   161      51.068 -18.869 -18.593  1.00  0.00     0.225 C 
ATOM  11405  O11 POP   161      52.955 -21.082 -18.106  1.00  0.00    -0.287 OA
ATOM  11406  C12 POP   161      50.231 -17.830 -19.313  1.00  0.00     0.307 C 
ATOM  11407  O12 POP   161      51.897 -19.323 -19.592  1.00  0.00    -0.287 OA
ATOM  11408  C13 POP   161      48.976 -17.701 -18.477  1.00  0.00     0.206 C 
ATOM  11409  O13 POP   161      54.217 -19.090 -19.048  1.00  0.00    -0.624 OA
ATOM  11410  O13 POP   161      48.765 -16.599 -17.926  1.00  0.00    -0.646 OA
ATOM  11411  O13 POP   161      48.215 -18.698 -18.405  1.00  0.00    -0.646 OA
ATOM  11412  O14 POP   161      53.210 -20.858 -20.513  1.00  0.00    -0.624 OA
ATOM  11413  C21 POP   161      50.379 -22.445 -15.821  1.00  0.00     0.259 C 
ATOM  11414  O21 POP   161      51.632 -22.375 -16.187  1.00  0.00    -0.312 OA
ATOM  11415  C22 POP   161      50.177 -21.393 -14.737  1.00  0.00     0.111 C 
ATOM  11416  O22 POP   161      49.542 -23.220 -16.251  1.00  0.00    -0.265 OA
ATOM  11417  C23 POP   161      49.137 -21.825 -13.674  1.00  0.00     0.010 C 
ATOM  11418  C24 POP   161      48.854 -20.683 -12.675  1.00  0.00     0.000 C 
ATOM  11419  C25 POP   161      47.808 -21.007 -11.591  1.00  0.00     0.000 C 
ATOM  11420  C26 POP   161      47.571 -19.922 -10.515  1.00  0.00     0.000 C 
ATOM  11421  C27 POP   161      48.755 -19.632  -9.575  1.00  0.00     0.004 C 
ATOM  11422  C28 POP   161      49.432 -20.871  -8.958  1.00  0.00     0.027 C 
ATOM  11423  C29 POP   161      48.465 -21.714  -8.154  1.00  0.00    -0.031 C 
ATOM  11424  C31 POP   161      54.780 -22.710 -15.630  1.00  0.00     0.258 C 
ATOM  11425  O31 POP   161      54.519 -23.086 -16.862  1.00  0.00    -0.319 OA
ATOM  11426  C32 POP   161      56.031 -21.830 -15.618  1.00  0.00     0.111 C 
ATOM  11427  O32 POP   161      54.194 -23.080 -14.625  1.00  0.00    -0.265 OA
ATOM  11428  C33 POP   161      55.924 -20.778 -14.486  1.00  0.00     0.010 C 
ATOM  11429  C34 POP   161      54.797 -19.749 -14.758  1.00  0.00     0.000 C 
ATOM  11430  C35 POP   161      54.796 -18.485 -13.859  1.00  0.00     0.000 C 
ATOM  11431  C36 POP   161      54.332 -18.755 -12.415  1.00  0.00     0.000 C 
ATOM  11432  C37 POP   161      54.912 -17.823 -11.323  1.00  0.00     0.000 C 
ATOM  11433  C38 POP   161      54.495 -18.319  -9.923  1.00  0.00     0.000 C 
ATOM  11434  C39 POP   161      54.847 -17.362  -8.762  1.00  0.00     0.000 C 
ATOM  11435  C21 POP   161      48.018 -21.456  -6.909  1.00  0.00    -0.031 C 
ATOM  11436  C21 POP   161      48.384 -20.274  -6.036  1.00  0.00     0.027 C 
ATOM  11437  C21 POP   161      49.058 -20.758  -4.732  1.00  0.00     0.004 C 
ATOM  11438  C21 POP   161      50.360 -21.545  -4.958  1.00  0.00     0.000 C 
ATOM  11439  C21 POP   161      51.046 -22.087  -3.680  1.00  0.00     0.000 C 
ATOM  11440  C21 POP   161      50.178 -22.864  -2.664  1.00  0.00     0.000 C 
ATOM  11441  C21 POP   161      50.968 -23.546  -1.520  1.00  0.00    -0.000 C 
ATOM  11442  C21 POP   161      50.106 -23.866  -0.279  1.00  0.00    -0.005 C 
ATOM  11443  C21 POP   161      48.926 -24.794  -0.561  1.00  0.00     0.005 C 
ATOM  11444  C31 POP   161      53.892 -17.456  -7.534  1.00  0.00     0.000 C 
ATOM  11445  C31 POP   161      54.306 -16.575  -6.322  1.00  0.00     0.000 C 
ATOM  11446  C31 POP   161      53.236 -16.171  -5.257  1.00  0.00     0.000 C 
ATOM  11447  C31 POP   161      52.372 -17.208  -4.495  1.00  0.00     0.000 C 
ATOM  11448  C31 POP   161      51.277 -16.470  -3.669  1.00  0.00    -0.000 C 
ATOM  11449  C31 POP   161      50.888 -17.008  -2.273  1.00  0.00    -0.005 C 
ATOM  11450  C31 POP   161      52.020 -17.225  -1.274  1.00  0.00     0.005 C 
ATOM  11451  HN1 POP   161      51.769 -16.790 -20.270  1.00  0.00     0.275 HD
ATOM  11452  HN2 POP   161      50.357 -15.870 -19.865  1.00  0.00     0.275 HD
ATOM  11453  HN3 POP   161      51.486 -16.290 -18.667  1.00  0.00     0.275 HD
ATOM  11454  N   DYP   162     -47.942 -24.634 -19.863  1.00  0.00    -0.077 N 
ATOM  11455  P   DYP   162     -48.478 -28.616 -18.078  1.00  0.00     0.408 P 
ATOM  11456  C1  DYP   162     -48.216 -26.811 -16.219  1.00  0.00     0.216 C 
ATOM  11457  C2  DYP   162     -48.319 -26.928 -14.681  1.00  0.00     0.180 C 
ATOM  11458  C3  DYP   162     -49.734 -26.588 -14.149  1.00  0.00     0.213 C 
ATOM  11459  C11 DYP   162     -49.518 -26.719 -19.572  1.00  0.00     0.209 C 
ATOM  11460  O11 DYP   162     -49.042 -27.808 -16.837  1.00  0.00    -0.287 OA
ATOM  11461  C12 DYP   162     -49.303 -25.185 -19.503  1.00  0.00     0.262 C 
ATOM  11462  O12 DYP   162     -48.379 -27.428 -19.107  1.00  0.00    -0.288 OA
ATOM  11463  C13 DYP   162     -46.930 -24.914 -18.790  1.00  0.00     0.271 C 
ATOM  11464  O13 DYP   162     -47.094 -29.051 -17.788  1.00  0.00    -0.624 OA
ATOM  11465  C14 DYP   162     -48.019 -23.161 -20.017  1.00  0.00     0.271 C 
ATOM  11466  O14 DYP   162     -49.474 -29.602 -18.545  1.00  0.00    -0.624 OA
ATOM  11467  C15 DYP   162     -47.465 -25.248 -21.152  1.00  0.00     0.271 C 
ATOM  11468  C21 DYP   162     -46.897 -28.780 -14.462  1.00  0.00     0.259 C 
ATOM  11469  O21 DYP   162     -48.078 -28.265 -14.280  1.00  0.00    -0.312 OA
ATOM  11470  C22 DYP   162     -47.105 -30.287 -14.397  1.00  0.00     0.111 C 
ATOM  11471  O22 DYP   162     -45.836 -28.178 -14.541  1.00  0.00    -0.265 OA
ATOM  11472  C23 DYP   162     -46.898 -30.809 -12.957  1.00  0.00     0.010 C 
ATOM  11473  C24 DYP   162     -47.757 -30.222 -11.815  1.00  0.00     0.000 C 
ATOM  11474  C25 DYP   162     -47.423 -30.734 -10.389  1.00  0.00     0.000 C 
ATOM  11475  C26 DYP   162     -48.175 -29.959  -9.278  1.00  0.00     0.000 C 
ATOM  11476  C27 DYP   162     -47.606 -30.111  -7.851  1.00  0.00     0.004 C 
ATOM  11477  C28 DYP   162     -48.326 -29.194  -6.830  1.00  0.00     0.027 C 
ATOM  11478  C29 DYP   162     -47.813 -27.778  -6.745  1.00  0.00    -0.031 C 
ATOM  11479  C31 DYP   162     -49.842 -25.402 -12.101  1.00  0.00     0.258 C 
ATOM  11480  O31 DYP   162     -49.775 -26.615 -12.683  1.00  0.00    -0.319 OA
ATOM  11481  C32 DYP   162     -49.849 -25.436 -10.556  1.00  0.00     0.111 C 
ATOM  11482  O32 DYP   162     -49.895 -24.355 -12.718  1.00  0.00    -0.265 OA
ATOM  11483  C33 DYP   162     -50.422 -24.085 -10.026  1.00  0.00     0.010 C 
ATOM  11484  C34 DYP   162     -50.362 -23.901  -8.504  1.00  0.00     0.000 C 
ATOM  11485  C35 DYP   162     -48.973 -23.421  -8.056  1.00  0.00     0.000 C 
ATOM  11486  C36 DYP   162     -48.892 -22.961  -6.595  1.00  0.00     0.000 C 
ATOM  11487  C37 DYP   162     -49.141 -24.021  -5.511  1.00  0.00     0.004 C 
ATOM  11488  C38 DYP   162     -49.036 -23.404  -4.098  1.00  0.00     0.027 C 
ATOM  11489  C39 DYP   162     -47.631 -22.933  -3.819  1.00  0.00    -0.031 C 
ATOM  11490  C21 DYP   162     -46.929 -27.290  -5.843  1.00  0.00    -0.031 C 
ATOM  11491  C21 DYP   162     -46.249 -28.035  -4.717  1.00  0.00     0.027 C 
ATOM  11492  C21 DYP   162     -46.303 -27.291  -3.369  1.00  0.00     0.004 C 
ATOM  11493  C21 DYP   162     -47.705 -27.228  -2.770  1.00  0.00     0.000 C 
ATOM  11494  C21 DYP   162     -47.692 -26.711  -1.342  1.00  0.00    -0.000 C 
ATOM  11495  C21 DYP   162     -49.116 -26.776  -0.809  1.00  0.00    -0.005 C 
ATOM  11496  C21 DYP   162     -49.611 -28.101  -0.249  1.00  0.00     0.005 C 
ATOM  11497  C31 DYP   162     -47.249 -21.763  -3.253  1.00  0.00    -0.031 C 
ATOM  11498  C31 DYP   162     -48.063 -20.599  -2.735  1.00  0.00     0.027 C 
ATOM  11499  C31 DYP   162     -47.952 -20.000  -1.292  1.00  0.00     0.004 C 
ATOM  11500  C31 DYP   162     -46.619 -20.033  -0.649  1.00  0.00     0.000 C 
ATOM  11501  C31 DYP   162     -46.587 -19.221   0.650  1.00  0.00    -0.000 C 
ATOM  11502  C31 DYP   162     -47.295 -19.894   1.838  1.00  0.00    -0.005 C 
ATOM  11503  C31 DYP   162     -46.969 -21.373   2.149  1.00  0.00     0.005 C 
ATOM  11504  N   DYP   163      42.336 -37.049 -20.670  1.00  0.00    -0.077 N 
ATOM  11505  P   DYP   163      38.974 -37.677 -17.537  1.00  0.00     0.408 P 
ATOM  11506  C1  DYP   163      39.673 -35.347 -16.774  1.00  0.00     0.216 C 
ATOM  11507  C2  DYP   163      40.297 -34.525 -15.625  1.00  0.00     0.180 C 
ATOM  11508  C3  DYP   163      39.262 -34.306 -14.500  1.00  0.00     0.213 C 
ATOM  11509  C11 DYP   163      41.459 -37.963 -18.273  1.00  0.00     0.209 C 
ATOM  11510  O11 DYP   163      39.480 -36.709 -16.391  1.00  0.00    -0.287 OA
ATOM  11511  C12 DYP   163      42.593 -37.400 -19.198  1.00  0.00     0.262 C 
ATOM  11512  O12 DYP   163      40.137 -37.560 -18.641  1.00  0.00    -0.288 OA
ATOM  11513  C13 DYP   163      43.625 -36.750 -21.371  1.00  0.00     0.271 C 
ATOM  11514  O13 DYP   163      38.959 -39.050 -16.990  1.00  0.00    -0.624 OA
ATOM  11515  C14 DYP   163      41.390 -35.875 -20.742  1.00  0.00     0.271 C 
ATOM  11516  O14 DYP   163      37.739 -37.097 -18.099  1.00  0.00    -0.624 OA
ATOM  11517  C15 DYP   163      41.705 -38.237 -21.319  1.00  0.00     0.271 C 
ATOM  11518  C21 DYP   163      42.590 -34.828 -15.592  1.00  0.00     0.259 C 
ATOM  11519  O21 DYP   163      41.448 -35.212 -15.088  1.00  0.00    -0.312 OA
ATOM  11520  C22 DYP   163      43.702 -35.781 -15.105  1.00  0.00     0.111 C 
ATOM  11521  O22 DYP   163      42.729 -33.887 -16.359  1.00  0.00    -0.265 OA
ATOM  11522  C23 DYP   163      43.356 -36.726 -13.945  1.00  0.00     0.010 C 
ATOM  11523  C24 DYP   163      43.545 -36.038 -12.605  1.00  0.00     0.000 C 
ATOM  11524  C25 DYP   163      43.370 -37.102 -11.502  1.00  0.00     0.000 C 
ATOM  11525  C26 DYP   163      43.595 -36.640 -10.091  1.00  0.00     0.000 C 
ATOM  11526  C27 DYP   163      43.599 -35.101  -9.945  1.00  0.00     0.004 C 
ATOM  11527  C28 DYP   163      42.980 -34.915  -8.607  1.00  0.00     0.027 C 
ATOM  11528  C29 DYP   163      41.666 -35.372  -8.254  1.00  0.00    -0.031 C 
ATOM  11529  C31 DYP   163      40.254 -32.933 -12.918  1.00  0.00     0.258 C 
ATOM  11530  O31 DYP   163      39.861 -34.159 -13.205  1.00  0.00    -0.319 OA
ATOM  11531  C32 DYP   163      40.431 -32.836 -11.413  1.00  0.00     0.111 C 
ATOM  11532  O32 DYP   163      40.303 -31.988 -13.684  1.00  0.00    -0.265 OA
ATOM  11533  C33 DYP   163      41.628 -31.951 -11.019  1.00  0.00     0.010 C 
ATOM  11534  C34 DYP   163      41.680 -31.699  -9.523  1.00  0.00     0.000 C 
ATOM  11535  C35 DYP   163      40.411 -31.114  -8.953  1.00  0.00     0.000 C 
ATOM  11536  C36 DYP   163      40.619 -30.985  -7.461  1.00  0.00     0.000 C 
ATOM  11537  C37 DYP   163      40.294 -32.240  -6.627  1.00  0.00     0.004 C 
ATOM  11538  C38 DYP   163      38.866 -32.937  -6.706  1.00  0.00     0.027 C 
ATOM  11539  C39 DYP   163      37.549 -32.588  -6.075  1.00  0.00    -0.031 C 
ATOM  11540  C21 DYP   163      41.327 -36.130  -7.178  1.00  0.00    -0.031 C 
ATOM  11541  C21 DYP   163      42.157 -36.726  -6.030  1.00  0.00     0.027 C 
ATOM  11542  C21 DYP   163      42.343 -35.785  -4.818  1.00  0.00     0.004 C 
ATOM  11543  C21 DYP   163      41.088 -35.438  -4.025  1.00  0.00     0.000 C 
ATOM  11544  C21 DYP   163      40.161 -36.619  -3.703  1.00  0.00    -0.000 C 
ATOM  11545  C21 DYP   163      40.733 -37.555  -2.684  1.00  0.00    -0.005 C 
ATOM  11546  C21 DYP   163      40.482 -37.006  -1.365  1.00  0.00     0.005 C 
ATOM  11547  C31 DYP   163      37.429 -32.598  -4.765  1.00  0.00    -0.030 C 
ATOM  11548  C31 DYP   163      38.630 -32.957  -3.803  1.00  0.00     0.030 C 
ATOM  11549  C31 DYP   163      39.949 -32.129  -3.119  1.00  0.00     0.000 C 
ATOM  11550  C31 DYP   163      40.323 -32.497  -1.760  1.00  0.00     0.000 C 
ATOM  11551  C31 DYP   163      41.694 -31.881  -1.581  1.00  0.00    -0.000 C 
ATOM  11552  C31 DYP   163      41.881 -30.400  -1.268  1.00  0.00    -0.005 C 
ATOM  11553  C31 DYP   163      43.240 -30.219  -0.572  1.00  0.00     0.005 C 
ATOM  11554  N   POP   164      34.942 -44.985 -19.630  1.00  0.00    -0.063 N 
ATOM  11555  P   POP   164      32.260 -46.570 -17.568  1.00  0.00     0.408 P 
ATOM  11556  C1  POP   164      29.878 -45.461 -17.300  1.00  0.00     0.216 C 
ATOM  11557  C2  POP   164      28.794 -45.645 -16.191  1.00  0.00     0.180 C 
ATOM  11558  C3  POP   164      28.295 -47.116 -15.993  1.00  0.00     0.213 C 
ATOM  11559  C11 POP   164      32.514 -44.597 -19.253  1.00  0.00     0.225 C 
ATOM  11560  O11 POP   164      31.215 -45.653 -16.827  1.00  0.00    -0.287 OA
ATOM  11561  C12 POP   164      33.708 -44.419 -20.232  1.00  0.00     0.307 C 
ATOM  11562  O12 POP   164      32.222 -45.994 -19.039  1.00  0.00    -0.287 OA
ATOM  11563  C13 POP   164      33.881 -42.926 -20.539  1.00  0.00     0.206 C 
ATOM  11564  O13 POP   164      33.622 -46.288 -17.053  1.00  0.00    -0.624 OA
ATOM  11565  O13 POP   164      34.939 -42.349 -20.175  1.00  0.00    -0.646 OA
ATOM  11566  O13 POP   164      32.933 -42.359 -21.138  1.00  0.00    -0.646 OA
ATOM  11567  O14 POP   164      31.769 -47.953 -17.580  1.00  0.00    -0.624 OA
ATOM  11568  C21 POP   164      28.517 -44.455 -14.196  1.00  0.00     0.259 C 
ATOM  11569  O21 POP   164      29.311 -45.161 -14.946  1.00  0.00    -0.312 OA
ATOM  11570  C22 POP   164      29.151 -44.383 -12.825  1.00  0.00     0.111 C 
ATOM  11571  O22 POP   164      27.447 -43.969 -14.529  1.00  0.00    -0.265 OA
ATOM  11572  C23 POP   164      28.962 -43.027 -12.153  1.00  0.00     0.010 C 
ATOM  11573  C24 POP   164      29.619 -43.107 -10.760  1.00  0.00     0.000 C 
ATOM  11574  C25 POP   164      29.450 -41.866  -9.943  1.00  0.00     0.000 C 
ATOM  11575  C26 POP   164      30.265 -40.610 -10.376  1.00  0.00     0.000 C 
ATOM  11576  C27 POP   164      31.586 -40.472  -9.640  1.00  0.00     0.004 C 
ATOM  11577  C28 POP   164      31.458 -40.122  -8.141  1.00  0.00     0.027 C 
ATOM  11578  C29 POP   164      32.752 -40.534  -7.487  1.00  0.00    -0.031 C 
ATOM  11579  C31 POP   164      29.722 -48.226 -14.477  1.00  0.00     0.258 C 
ATOM  11580  O31 POP   164      29.333 -48.073 -15.724  1.00  0.00    -0.319 OA
ATOM  11581  C32 POP   164      30.987 -49.083 -14.433  1.00  0.00     0.111 C 
ATOM  11582  O32 POP   164      29.150 -47.786 -13.491  1.00  0.00    -0.265 OA
ATOM  11583  C33 POP   164      32.110 -48.399 -13.628  1.00  0.00     0.010 C 
ATOM  11584  C34 POP   164      32.256 -48.959 -12.202  1.00  0.00     0.000 C 
ATOM  11585  C35 POP   164      33.468 -48.334 -11.502  1.00  0.00     0.000 C 
ATOM  11586  C36 POP   164      33.992 -49.020 -10.226  1.00  0.00     0.000 C 
ATOM  11587  C37 POP   164      33.046 -49.079  -9.018  1.00  0.00     0.000 C 
ATOM  11588  C38 POP   164      33.815 -49.452  -7.735  1.00  0.00     0.000 C 
ATOM  11589  C39 POP   164      32.933 -49.998  -6.613  1.00  0.00     0.000 C 
ATOM  11590  C21 POP   164      32.970 -41.627  -6.736  1.00  0.00    -0.031 C 
ATOM  11591  C21 POP   164      31.955 -42.681  -6.379  1.00  0.00     0.027 C 
ATOM  11592  C21 POP   164      31.226 -42.283  -5.076  1.00  0.00     0.004 C 
ATOM  11593  C21 POP   164      31.909 -42.755  -3.781  1.00  0.00     0.000 C 
ATOM  11594  C21 POP   164      31.276 -42.065  -2.563  1.00  0.00     0.000 C 
ATOM  11595  C21 POP   164      31.713 -42.677  -1.232  1.00  0.00     0.000 C 
ATOM  11596  C21 POP   164      33.232 -42.622  -1.028  1.00  0.00    -0.000 C 
ATOM  11597  C21 POP   164      33.583 -42.397   0.408  1.00  0.00    -0.005 C 
ATOM  11598  C21 POP   164      33.451 -40.903   0.813  1.00  0.00     0.005 C 
ATOM  11599  C31 POP   164      31.830 -49.030  -6.166  1.00  0.00     0.000 C 
ATOM  11600  C31 POP   164      31.022 -49.530  -4.956  1.00  0.00     0.000 C 
ATOM  11601  C31 POP   164      31.740 -49.458  -3.623  1.00  0.00     0.000 C 
ATOM  11602  C31 POP   164      31.735 -48.060  -3.050  1.00  0.00     0.000 C 
ATOM  11603  C31 POP   164      32.943 -47.906  -2.134  1.00  0.00    -0.000 C 
ATOM  11604  C31 POP   164      33.140 -46.454  -1.716  1.00  0.00    -0.005 C 
ATOM  11605  C31 POP   164      34.330 -46.241  -0.779  1.00  0.00     0.005 C 
ATOM  11606  HN1 POP   164      34.800 -45.983 -19.405  1.00  0.00     0.275 HD
ATOM  11607  HN2 POP   164      35.705 -44.816 -20.312  1.00  0.00     0.275 HD
ATOM  11608  HN3 POP   164      35.135 -44.431 -18.775  1.00  0.00     0.275 HD
ATOM  11609  N   POP   165     -40.746  40.513 -20.768  1.00  0.00    -0.063 N 
ATOM  11610  P   POP   165     -39.705  39.768 -16.558  1.00  0.00     0.408 P 
ATOM  11611  C1  POP   165     -42.316  39.567 -16.258  1.00  0.00     0.216 C 
ATOM  11612  C2  POP   165     -42.829  40.277 -14.959  1.00  0.00     0.180 C 
ATOM  11613  C3  POP   165     -42.564  39.484 -13.634  1.00  0.00     0.213 C 
ATOM  11614  C11 POP   165     -39.865  38.960 -19.100  1.00  0.00     0.225 C 
ATOM  11615  O11 POP   165     -41.015  38.993 -16.141  1.00  0.00    -0.287 OA
ATOM  11616  C12 POP   165     -39.525  39.743 -20.389  1.00  0.00     0.307 C 
ATOM  11617  O12 POP   165     -40.041  39.957 -18.093  1.00  0.00    -0.287 OA
ATOM  11618  C13 POP   165     -38.928  38.871 -21.524  1.00  0.00     0.206 C 
ATOM  11619  O13 POP   165     -39.655  41.119 -15.970  1.00  0.00    -0.624 OA
ATOM  11620  O13 POP   165     -39.553  38.799 -22.618  1.00  0.00    -0.646 OA
ATOM  11621  O13 POP   165     -37.828  38.305 -21.309  1.00  0.00    -0.646 OA
ATOM  11622  O14 POP   165     -38.534  38.876 -16.410  1.00  0.00    -0.624 OA
ATOM  11623  C21 POP   165     -42.801  42.404 -14.017  1.00  0.00     0.259 C 
ATOM  11624  O21 POP   165     -42.227  41.576 -14.864  1.00  0.00    -0.312 OA
ATOM  11625  C22 POP   165     -41.897  43.605 -13.783  1.00  0.00     0.111 C 
ATOM  11626  O22 POP   165     -43.906  42.254 -13.521  1.00  0.00    -0.265 OA
ATOM  11627  C23 POP   165     -40.579  43.258 -13.059  1.00  0.00     0.010 C 
ATOM  11628  C24 POP   165     -40.710  42.625 -11.660  1.00  0.00     0.000 C 
ATOM  11629  C25 POP   165     -41.798  43.156 -10.709  1.00  0.00     0.000 C 
ATOM  11630  C26 POP   165     -41.756  42.471  -9.324  1.00  0.00     0.000 C 
ATOM  11631  C27 POP   165     -42.157  40.976  -9.257  1.00  0.00     0.004 C 
ATOM  11632  C28 POP   165     -41.941  40.396  -7.831  1.00  0.00     0.027 C 
ATOM  11633  C29 POP   165     -42.455  38.994  -7.564  1.00  0.00    -0.031 C 
ATOM  11634  C31 POP   165     -40.816  38.048 -12.945  1.00  0.00     0.258 C 
ATOM  11635  O31 POP   165     -41.166  39.228 -13.415  1.00  0.00    -0.319 OA
ATOM  11636  C32 POP   165     -39.295  38.022 -12.796  1.00  0.00     0.111 C 
ATOM  11637  O32 POP   165     -41.573  37.142 -12.639  1.00  0.00    -0.265 OA
ATOM  11638  C33 POP   165     -38.728  37.036 -11.734  1.00  0.00     0.010 C 
ATOM  11639  C34 POP   165     -39.148  37.347 -10.288  1.00  0.00     0.000 C 
ATOM  11640  C35 POP   165     -38.761  38.759  -9.811  1.00  0.00     0.000 C 
ATOM  11641  C36 POP   165     -37.295  38.902  -9.347  1.00  0.00     0.000 C 
ATOM  11642  C37 POP   165     -37.053  40.208  -8.562  1.00  0.00     0.000 C 
ATOM  11643  C38 POP   165     -37.295  41.506  -9.372  1.00  0.00     0.000 C 
ATOM  11644  C39 POP   165     -36.843  42.792  -8.639  1.00  0.00     0.000 C 
ATOM  11645  C21 POP   165     -41.757  37.961  -7.052  1.00  0.00    -0.031 C 
ATOM  11646  C21 POP   165     -40.316  37.934  -6.618  1.00  0.00     0.027 C 
ATOM  11647  C21 POP   165     -40.142  37.455  -5.152  1.00  0.00     0.004 C 
ATOM  11648  C21 POP   165     -41.421  37.321  -4.291  1.00  0.00     0.000 C 
ATOM  11649  C21 POP   165     -41.152  36.571  -2.983  1.00  0.00     0.000 C 
ATOM  11650  C21 POP   165     -42.356  36.532  -2.047  1.00  0.00     0.000 C 
ATOM  11651  C21 POP   165     -42.078  35.661  -0.825  1.00  0.00    -0.000 C 
ATOM  11652  C21 POP   165     -42.699  36.250   0.438  1.00  0.00    -0.005 C 
ATOM  11653  C21 POP   165     -42.739  35.202   1.538  1.00  0.00     0.005 C 
ATOM  11654  C31 POP   165     -37.979  43.603  -7.987  1.00  0.00     0.000 C 
ATOM  11655  C31 POP   165     -38.647  42.961  -6.762  1.00  0.00     0.000 C 
ATOM  11656  C31 POP   165     -37.737  42.756  -5.538  1.00  0.00     0.000 C 
ATOM  11657  C31 POP   165     -38.509  42.173  -4.346  1.00  0.00     0.000 C 
ATOM  11658  C31 POP   165     -37.782  42.366  -3.006  1.00  0.00    -0.000 C 
ATOM  11659  C31 POP   165     -38.337  41.450  -1.910  1.00  0.00    -0.005 C 
ATOM  11660  C31 POP   165     -37.343  41.091  -0.804  1.00  0.00     0.005 C 
ATOM  11661  HN1 POP   165     -40.599  41.060 -21.630  1.00  0.00     0.275 HD
ATOM  11662  HN2 POP   165     -41.491  39.821 -20.972  1.00  0.00     0.275 HD
ATOM  11663  HN3 POP   165     -40.986  41.124 -19.955  1.00  0.00     0.275 HD
ATOM  11664  N   DYP   166      41.207  39.397 -20.103  1.00  0.00    -0.077 N 
ATOM  11665  P   DYP   166      43.336  36.038 -17.772  1.00  0.00     0.408 P 
ATOM  11666  C1  DYP   166      40.922  35.760 -16.823  1.00  0.00     0.216 C 
ATOM  11667  C2  DYP   166      40.393  36.997 -16.022  1.00  0.00     0.180 C 
ATOM  11668  C3  DYP   166      39.399  36.522 -14.967  1.00  0.00     0.213 C 
ATOM  11669  C11 DYP   166      43.381  38.057 -19.441  1.00  0.00     0.209 C 
ATOM  11670  O11 DYP   166      41.755  36.144 -17.915  1.00  0.00    -0.287 OA
ATOM  11671  C12 DYP   166      41.916  38.066 -19.898  1.00  0.00     0.262 C 
ATOM  11672  O12 DYP   166      43.719  36.694 -19.176  1.00  0.00    -0.288 OA
ATOM  11673  C13 DYP   166      41.943  40.400 -20.949  1.00  0.00     0.271 C 
ATOM  11674  O13 DYP   166      43.783  36.918 -16.679  1.00  0.00    -0.624 OA
ATOM  11675  C14 DYP   166      41.135  40.002 -18.725  1.00  0.00     0.271 C 
ATOM  11676  O14 DYP   166      43.710  34.610 -17.737  1.00  0.00    -0.624 OA
ATOM  11677  C15 DYP   166      39.812  39.182 -20.624  1.00  0.00     0.271 C 
ATOM  11678  C21 DYP   166      41.136  38.857 -14.889  1.00  0.00     0.259 C 
ATOM  11679  O21 DYP   166      41.454  37.665 -15.327  1.00  0.00    -0.312 OA
ATOM  11680  C22 DYP   166      42.203  39.370 -13.939  1.00  0.00     0.111 C 
ATOM  11681  O22 DYP   166      40.133  39.485 -15.185  1.00  0.00    -0.265 OA
ATOM  11682  C23 DYP   166      41.570  40.152 -12.766  1.00  0.00     0.010 C 
ATOM  11683  C24 DYP   166      42.421  39.959 -11.511  1.00  0.00     0.000 C 
ATOM  11684  C25 DYP   166      41.850  40.711 -10.299  1.00  0.00     0.000 C 
ATOM  11685  C26 DYP   166      42.298  40.216  -8.911  1.00  0.00     0.000 C 
ATOM  11686  C27 DYP   166      41.600  40.997  -7.783  1.00  0.00     0.004 C 
ATOM  11687  C28 DYP   166      42.030  40.501  -6.380  1.00  0.00     0.027 C 
ATOM  11688  C29 DYP   166      41.222  41.035  -5.209  1.00  0.00    -0.031 C 
ATOM  11689  C31 DYP   166      40.663  35.386 -13.263  1.00  0.00     0.258 C 
ATOM  11690  O31 DYP   166      39.988  35.363 -14.401  1.00  0.00    -0.319 OA
ATOM  11691  C32 DYP   166      40.581  33.994 -12.667  1.00  0.00     0.111 C 
ATOM  11692  O32 DYP   166      41.052  36.362 -12.668  1.00  0.00    -0.265 OA
ATOM  11693  C33 DYP   166      40.345  33.869 -11.154  1.00  0.00     0.010 C 
ATOM  11694  C34 DYP   166      41.659  34.152 -10.457  1.00  0.00     0.000 C 
ATOM  11695  C35 DYP   166      41.710  33.553  -9.047  1.00  0.00     0.000 C 
ATOM  11696  C36 DYP   166      40.773  34.202  -8.016  1.00  0.00     0.000 C 
ATOM  11697  C37 DYP   166      41.234  35.613  -7.641  1.00  0.00     0.004 C 
ATOM  11698  C38 DYP   166      40.309  36.362  -6.665  1.00  0.00     0.027 C 
ATOM  11699  C39 DYP   166      39.098  36.933  -7.369  1.00  0.00    -0.031 C 
ATOM  11700  C21 DYP   166      40.949  40.365  -4.072  1.00  0.00    -0.031 C 
ATOM  11701  C21 DYP   166      41.397  38.964  -3.775  1.00  0.00     0.027 C 
ATOM  11702  C21 DYP   166      40.676  38.411  -2.529  1.00  0.00     0.004 C 
ATOM  11703  C21 DYP   166      41.103  39.080  -1.208  1.00  0.00     0.000 C 
ATOM  11704  C21 DYP   166      41.267  38.071  -0.048  1.00  0.00    -0.000 C 
ATOM  11705  C21 DYP   166      41.847  38.628   1.262  1.00  0.00    -0.005 C 
ATOM  11706  C21 DYP   166      43.317  39.010   1.260  1.00  0.00     0.005 C 
ATOM  11707  C31 DYP   166      37.809  36.706  -7.108  1.00  0.00    -0.031 C 
ATOM  11708  C31 DYP   166      37.330  35.822  -6.036  1.00  0.00     0.027 C 
ATOM  11709  C31 DYP   166      36.679  36.660  -5.034  1.00  0.00     0.004 C 
ATOM  11710  C31 DYP   166      36.780  35.661  -3.861  1.00  0.00     0.000 C 
ATOM  11711  C31 DYP   166      37.933  35.855  -2.735  1.00  0.00    -0.000 C 
ATOM  11712  C31 DYP   166      37.774  35.070  -1.413  1.00  0.00    -0.005 C 
ATOM  11713  C31 DYP   166      38.676  33.962  -1.555  1.00  0.00     0.005 C 
ATOM  11714  N   PYP   167     -51.830  23.182 -20.911  1.00  0.00    -0.077 N 
ATOM  11715  P   PYP   167     -50.658  27.128 -21.658  1.00  0.00     0.408 P 
ATOM  11716  C1  PYP   167     -49.665  26.265 -19.394  1.00  0.00     0.216 C 
ATOM  11717  C2  PYP   167     -49.741  26.708 -17.920  1.00  0.00     0.180 C 
ATOM  11718  C3  PYP   167     -48.719  27.855 -17.717  1.00  0.00     0.213 C 
ATOM  11719  C11 PYP   167     -52.616  25.425 -21.461  1.00  0.00     0.208 C 
ATOM  11720  O11 PYP   167     -50.308  27.282 -20.153  1.00  0.00    -0.287 OA
ATOM  11721  C12 PYP   167     -52.892  23.930 -21.634  1.00  0.00     0.256 C 
ATOM  11722  O12 PYP   167     -51.230  25.660 -21.677  1.00  0.00    -0.288 OA
ATOM  11723  O13 PYP   167     -51.724  28.069 -22.065  1.00  0.00    -0.624 OA
ATOM  11724  O14 PYP   167     -49.382  27.125 -22.400  1.00  0.00    -0.624 OA
ATOM  11725  C21 PYP   167     -52.024  26.368 -17.453  1.00  0.00     0.259 C 
ATOM  11726  O21 PYP   167     -51.041  27.225 -17.610  1.00  0.00    -0.312 OA
ATOM  11727  C22 PYP   167     -53.319  27.164 -17.259  1.00  0.00     0.111 C 
ATOM  11728  O22 PYP   167     -51.918  25.148 -17.454  1.00  0.00    -0.265 OA
ATOM  11729  C23 PYP   167     -53.998  26.803 -15.919  1.00  0.00     0.010 C 
ATOM  11730  C24 PYP   167     -53.070  26.973 -14.695  1.00  0.00     0.000 C 
ATOM  11731  C25 PYP   167     -53.644  26.447 -13.379  1.00  0.00     0.000 C 
ATOM  11732  C26 PYP   167     -52.715  26.457 -12.171  1.00  0.00     0.000 C 
ATOM  11733  C27 PYP   167     -53.380  26.079 -10.832  1.00  0.00     0.004 C 
ATOM  11734  C28 PYP   167     -54.203  27.259 -10.240  1.00  0.00     0.027 C 
ATOM  11735  C29 PYP   167     -53.500  28.547 -10.100  1.00  0.00    -0.031 C 
ATOM  11736  C31 PYP   167     -49.561  29.436 -16.181  1.00  0.00     0.258 C 
ATOM  11737  O31 PYP   167     -48.754  28.408 -16.388  1.00  0.00    -0.319 OA
ATOM  11738  C32 PYP   167     -49.765  29.648 -14.671  1.00  0.00     0.111 C 
ATOM  11739  O32 PYP   167     -50.115  30.095 -17.037  1.00  0.00    -0.265 OA
ATOM  11740  C33 PYP   167     -48.868  28.809 -13.720  1.00  0.00     0.010 C 
ATOM  11741  C34 PYP   167     -49.344  28.864 -12.260  1.00  0.00     0.000 C 
ATOM  11742  C35 PYP   167     -48.637  27.872 -11.315  1.00  0.00     0.000 C 
ATOM  11743  C36 PYP   167     -49.378  27.633  -9.981  1.00  0.00     0.000 C 
ATOM  11744  C37 PYP   167     -48.592  26.762  -8.979  1.00  0.00     0.000 C 
ATOM  11745  C38 PYP   167     -49.456  26.160  -7.842  1.00  0.00     0.000 C 
ATOM  11746  C39 PYP   167     -50.499  25.131  -8.351  1.00  0.00     0.000 C 
ATOM  11747  C21 PYP   167     -52.876  28.958  -9.008  1.00  0.00    -0.031 C 
ATOM  11748  C21 PYP   167     -52.759  28.200  -7.716  1.00  0.00     0.027 C 
ATOM  11749  C21 PYP   167     -53.571  28.844  -6.583  1.00  0.00     0.004 C 
ATOM  11750  C21 PYP   167     -53.259  28.176  -5.243  1.00  0.00     0.000 C 
ATOM  11751  C21 PYP   167     -51.997  28.688  -4.534  1.00  0.00    -0.000 C 
ATOM  11752  C21 PYP   167     -51.667  27.924  -3.231  1.00  0.00    -0.005 C 
ATOM  11753  C21 PYP   167     -52.864  27.368  -2.437  1.00  0.00     0.005 C 
ATOM  11754  C31 PYP   167     -50.665  23.838  -7.537  1.00  0.00     0.000 C 
ATOM  11755  C31 PYP   167     -51.436  24.006  -6.225  1.00  0.00     0.000 C 
ATOM  11756  C31 PYP   167     -51.220  22.778  -5.337  1.00  0.00     0.000 C 
ATOM  11757  C31 PYP   167     -52.042  22.778  -4.044  1.00  0.00     0.000 C 
ATOM  11758  C31 PYP   167     -51.282  23.220  -2.803  1.00  0.00    -0.000 C 
ATOM  11759  C31 PYP   167     -52.214  23.305  -1.602  1.00  0.00    -0.005 C 
ATOM  11760  C31 PYP   167     -51.440  23.795  -0.393  1.00  0.00     0.005 C 
ATOM  11761  HN1 PYP   167     -51.403  23.969 -20.377  1.00  0.00     0.274 HD
ATOM  11762  HN2 PYP   167     -52.240  22.457 -20.294  1.00  0.00     0.274 HD
ATOM  11763  HN3 PYP   167     -51.192  22.815 -21.643  1.00  0.00     0.274 HD
ATOM  11764  N   POP   168      50.470 -33.169 -20.205  1.00  0.00    -0.063 N 
ATOM  11765  P   POP   168      49.529 -30.638 -16.712  1.00  0.00     0.408 P 
ATOM  11766  C1  POP   168      49.444 -32.984 -15.461  1.00  0.00     0.216 C 
ATOM  11767  C2  POP   168      48.094 -33.555 -15.984  1.00  0.00     0.180 C 
ATOM  11768  C3  POP   168      47.970 -35.085 -15.697  1.00  0.00     0.213 C 
ATOM  11769  C11 POP   168      49.238 -31.280 -19.230  1.00  0.00     0.225 C 
ATOM  11770  O11 POP   168      49.511 -31.562 -15.439  1.00  0.00    -0.287 OA
ATOM  11771  C12 POP   168      49.132 -32.535 -20.138  1.00  0.00     0.307 C 
ATOM  11772  O12 POP   168      49.572 -31.705 -17.905  1.00  0.00    -0.287 OA
ATOM  11773  C13 POP   168      48.613 -32.176 -21.529  1.00  0.00     0.206 C 
ATOM  11774  O13 POP   168      48.280 -29.865 -16.818  1.00  0.00    -0.624 OA
ATOM  11775  O13 POP   168      49.314 -32.447 -22.543  1.00  0.00    -0.646 OA
ATOM  11776  O13 POP   168      47.493 -31.623 -21.586  1.00  0.00    -0.646 OA
ATOM  11777  O14 POP   168      50.798 -29.897 -16.815  1.00  0.00    -0.624 OA
ATOM  11778  C21 POP   168      45.838 -33.059 -15.497  1.00  0.00     0.259 C 
ATOM  11779  O21 POP   168      47.089 -32.772 -15.318  1.00  0.00    -0.312 OA
ATOM  11780  C22 POP   168      44.971 -32.238 -14.513  1.00  0.00     0.111 C 
ATOM  11781  O22 POP   168      45.409 -33.847 -16.328  1.00  0.00    -0.265 OA
ATOM  11782  C23 POP   168      45.701 -31.345 -13.453  1.00  0.00     0.010 C 
ATOM  11783  C24 POP   168      46.511 -32.125 -12.383  1.00  0.00     0.000 C 
ATOM  11784  C25 POP   168      46.820 -31.399 -11.049  1.00  0.00     0.000 C 
ATOM  11785  C26 POP   168      47.452 -30.014 -11.213  1.00  0.00     0.000 C 
ATOM  11786  C27 POP   168      48.794 -30.025 -11.969  1.00  0.00     0.004 C 
ATOM  11787  C28 POP   168      49.932 -30.824 -11.296  1.00  0.00     0.027 C 
ATOM  11788  C29 POP   168      50.724 -29.968 -10.352  1.00  0.00    -0.031 C 
ATOM  11789  C31 POP   168      48.207 -36.506 -13.896  1.00  0.00     0.258 C 
ATOM  11790  O31 POP   168      48.054 -35.262 -14.279  1.00  0.00    -0.319 OA
ATOM  11791  C32 POP   168      48.084 -36.556 -12.420  1.00  0.00     0.111 C 
ATOM  11792  O32 POP   168      48.266 -37.486 -14.611  1.00  0.00    -0.265 OA
ATOM  11793  C33 POP   168      46.735 -36.060 -12.173  1.00  0.00     0.010 C 
ATOM  11794  C34 POP   168      46.330 -36.663 -10.872  1.00  0.00     0.000 C 
ATOM  11795  C35 POP   168      46.950 -36.404  -9.459  1.00  0.00     0.000 C 
ATOM  11796  C36 POP   168      46.239 -36.771  -8.085  1.00  0.00     0.000 C 
ATOM  11797  C37 POP   168      45.481 -35.637  -7.356  1.00  0.00     0.000 C 
ATOM  11798  C38 POP   168      45.870 -34.238  -6.877  1.00  0.00     0.000 C 
ATOM  11799  C39 POP   168      44.752 -33.183  -6.528  1.00  0.00     0.000 C 
ATOM  11800  C21 POP   168      50.712 -30.064  -9.015  1.00  0.00    -0.031 C 
ATOM  11801  C21 POP   168      49.894 -31.050  -8.220  1.00  0.00     0.027 C 
ATOM  11802  C21 POP   168      50.587 -32.392  -7.946  1.00  0.00     0.004 C 
ATOM  11803  C21 POP   168      49.627 -33.362  -7.245  1.00  0.00     0.000 C 
ATOM  11804  C21 POP   168      50.394 -34.596  -6.755  1.00  0.00     0.000 C 
ATOM  11805  C21 POP   168      49.527 -35.756  -6.240  1.00  0.00     0.000 C 
ATOM  11806  C21 POP   168      49.026 -35.587  -4.792  1.00  0.00    -0.000 C 
ATOM  11807  C21 POP   168      49.367 -36.797  -3.947  1.00  0.00    -0.005 C 
ATOM  11808  C21 POP   168      49.023 -36.736  -2.450  1.00  0.00     0.005 C 
ATOM  11809  C31 POP   168      45.240 -31.859  -5.969  1.00  0.00     0.000 C 
ATOM  11810  C31 POP   168      46.249 -32.097  -4.867  1.00  0.00     0.000 C 
ATOM  11811  C31 POP   168      45.687 -32.956  -3.712  1.00  0.00     0.000 C 
ATOM  11812  C31 POP   168      46.649 -33.031  -2.510  1.00  0.00     0.000 C 
ATOM  11813  C31 POP   168      46.297 -34.041  -1.389  1.00  0.00    -0.000 C 
ATOM  11814  C31 POP   168      47.237 -34.008  -0.165  1.00  0.00    -0.005 C 
ATOM  11815  C31 POP   168      47.523 -32.614   0.410  1.00  0.00     0.005 C 
ATOM  11816  HN1 POP   168      51.045 -32.562 -20.822  1.00  0.00     0.275 HD
ATOM  11817  HN2 POP   168      50.860 -33.166 -19.247  1.00  0.00     0.275 HD
ATOM  11818  HN3 POP   168      50.391 -34.098 -20.663  1.00  0.00     0.275 HD
ATOM  11819  N   POP   169     -40.019 -45.694 -19.938  1.00  0.00    -0.063 N 
ATOM  11820  P   POP   169     -39.708 -41.497 -19.912  1.00  0.00     0.408 P 
ATOM  11821  C1  POP   169     -40.330 -40.597 -17.491  1.00  0.00     0.216 C 
ATOM  11822  C2  POP   169     -41.092 -39.365 -16.901  1.00  0.00     0.180 C 
ATOM  11823  C3  POP   169     -42.593 -39.342 -17.360  1.00  0.00     0.213 C 
ATOM  11824  C11 POP   169     -40.633 -43.600 -18.763  1.00  0.00     0.225 C 
ATOM  11825  O11 POP   169     -40.729 -40.872 -18.854  1.00  0.00    -0.287 OA
ATOM  11826  C12 POP   169     -40.301 -45.085 -18.598  1.00  0.00     0.307 C 
ATOM  11827  O12 POP   169     -39.479 -42.935 -19.286  1.00  0.00    -0.287 OA
ATOM  11828  C13 POP   169     -41.430 -45.737 -17.803  1.00  0.00     0.206 C 
ATOM  11829  O13 POP   169     -40.350 -41.727 -21.222  1.00  0.00    -0.624 OA
ATOM  11830  O13 POP   169     -42.069 -46.685 -18.324  1.00  0.00    -0.646 OA
ATOM  11831  O13 POP   169     -41.653 -45.262 -16.663  1.00  0.00    -0.646 OA
ATOM  11832  O14 POP   169     -38.461 -40.716 -19.872  1.00  0.00    -0.624 OA
ATOM  11833  C21 POP   169     -39.946 -39.311 -14.802  1.00  0.00     0.259 C 
ATOM  11834  O21 POP   169     -41.098 -39.358 -15.449  1.00  0.00    -0.312 OA
ATOM  11835  C22 POP   169     -40.168 -39.591 -13.309  1.00  0.00     0.111 C 
ATOM  11836  O22 POP   169     -38.852 -39.097 -15.290  1.00  0.00    -0.265 OA
ATOM  11837  C23 POP   169     -40.893 -40.942 -13.067  1.00  0.00     0.010 C 
ATOM  11838  C24 POP   169     -40.048 -42.149 -13.556  1.00  0.00     0.000 C 
ATOM  11839  C25 POP   169     -40.617 -43.548 -13.259  1.00  0.00     0.000 C 
ATOM  11840  C26 POP   169     -39.629 -44.715 -13.488  1.00  0.00     0.000 C 
ATOM  11841  C27 POP   169     -40.253 -46.109 -13.251  1.00  0.00     0.004 C 
ATOM  11842  C28 POP   169     -40.598 -46.467 -11.790  1.00  0.00     0.027 C 
ATOM  11843  C29 POP   169     -39.440 -46.761 -10.877  1.00  0.00    -0.031 C 
ATOM  11844  C31 POP   169     -44.419 -40.900 -17.314  1.00  0.00     0.258 C 
ATOM  11845  O31 POP   169     -43.228 -40.540 -16.877  1.00  0.00    -0.319 OA
ATOM  11846  C32 POP   169     -44.860 -42.164 -16.561  1.00  0.00     0.111 C 
ATOM  11847  O32 POP   169     -45.076 -40.309 -18.148  1.00  0.00    -0.265 OA
ATOM  11848  C33 POP   169     -44.045 -42.406 -15.265  1.00  0.00     0.010 C 
ATOM  11849  C34 POP   169     -44.393 -43.774 -14.657  1.00  0.00     0.000 C 
ATOM  11850  C35 POP   169     -44.107 -43.983 -13.164  1.00  0.00     0.000 C 
ATOM  11851  C36 POP   169     -44.995 -43.147 -12.302  1.00  0.00     0.000 C 
ATOM  11852  C37 POP   169     -44.762 -43.349 -10.798  1.00  0.00     0.000 C 
ATOM  11853  C38 POP   169     -43.397 -42.764 -10.372  1.00  0.00     0.000 C 
ATOM  11854  C39 POP   169     -43.128 -42.845  -8.876  1.00  0.00     0.000 C 
ATOM  11855  C21 POP   169     -39.122 -46.117  -9.742  1.00  0.00    -0.031 C 
ATOM  11856  C21 POP   169     -39.831 -44.941  -9.105  1.00  0.00     0.027 C 
ATOM  11857  C21 POP   169     -38.796 -44.021  -8.416  1.00  0.00     0.004 C 
ATOM  11858  C21 POP   169     -38.377 -44.463  -7.002  1.00  0.00     0.000 C 
ATOM  11859  C21 POP   169     -39.437 -44.377  -5.893  1.00  0.00     0.000 C 
ATOM  11860  C21 POP   169     -38.966 -45.098  -4.621  1.00  0.00     0.000 C 
ATOM  11861  C21 POP   169     -39.754 -44.712  -3.371  1.00  0.00    -0.000 C 
ATOM  11862  C21 POP   169     -41.176 -45.275  -3.317  1.00  0.00    -0.005 C 
ATOM  11863  C21 POP   169     -41.911 -44.717  -2.107  1.00  0.00     0.005 C 
ATOM  11864  C31 POP   169     -41.945 -41.956  -8.409  1.00  0.00     0.000 C 
ATOM  11865  C31 POP   169     -41.783 -41.964  -6.882  1.00  0.00     0.000 C 
ATOM  11866  C31 POP   169     -43.133 -41.836  -6.258  1.00  0.00     0.000 C 
ATOM  11867  C31 POP   169     -43.017 -41.223  -4.892  1.00  0.00     0.000 C 
ATOM  11868  C31 POP   169     -42.815 -42.023  -3.662  1.00  0.00    -0.000 C 
ATOM  11869  C31 POP   169     -42.787 -41.272  -2.309  1.00  0.00    -0.005 C 
ATOM  11870  C31 POP   169     -41.767 -40.131  -2.151  1.00  0.00     0.005 C 
ATOM  11871  HN1 POP   169     -39.745 -46.681 -19.790  1.00  0.00     0.275 HD
ATOM  11872  HN2 POP   169     -40.887 -45.676 -20.507  1.00  0.00     0.275 HD
ATOM  11873  HN3 POP   169     -39.277 -45.129 -20.396  1.00  0.00     0.275 HD
ATOM  11874  N   PYP   170     -35.209 -49.416 -23.090  1.00  0.00    -0.077 N 
ATOM  11875  P   PYP   170     -32.285 -51.146 -20.580  1.00  0.00     0.408 P 
ATOM  11876  C1  PYP   170     -32.031 -49.573 -18.564  1.00  0.00     0.216 C 
ATOM  11877  C2  PYP   170     -30.833 -50.022 -17.706  1.00  0.00     0.180 C 
ATOM  11878  C3  PYP   170     -30.077 -48.747 -17.261  1.00  0.00     0.213 C 
ATOM  11879  C11 PYP   170     -32.764 -49.754 -22.797  1.00  0.00     0.208 C 
ATOM  11880  O11 PYP   170     -32.678 -50.701 -19.128  1.00  0.00    -0.287 OA
ATOM  11881  C12 PYP   170     -33.856 -48.817 -23.337  1.00  0.00     0.256 C 
ATOM  11882  O12 PYP   170     -32.757 -49.818 -21.375  1.00  0.00    -0.288 OA
ATOM  11883  O13 PYP   170     -30.818 -51.349 -20.709  1.00  0.00    -0.624 OA
ATOM  11884  O14 PYP   170     -33.210 -52.201 -21.013  1.00  0.00    -0.624 OA
ATOM  11885  C21 PYP   170     -30.416 -51.664 -16.104  1.00  0.00     0.259 C 
ATOM  11886  O21 PYP   170     -31.297 -50.799 -16.574  1.00  0.00    -0.312 OA
ATOM  11887  C22 PYP   170     -31.036 -52.544 -15.024  1.00  0.00     0.111 C 
ATOM  11888  O22 PYP   170     -29.252 -51.747 -16.455  1.00  0.00    -0.265 OA
ATOM  11889  C23 PYP   170     -30.247 -52.419 -13.695  1.00  0.00     0.010 C 
ATOM  11890  C24 PYP   170     -30.721 -51.265 -12.795  1.00  0.00     0.000 C 
ATOM  11891  C25 PYP   170     -32.196 -51.280 -12.333  1.00  0.00     0.000 C 
ATOM  11892  C26 PYP   170     -32.665 -52.558 -11.607  1.00  0.00     0.000 C 
ATOM  11893  C27 PYP   170     -31.788 -53.042 -10.440  1.00  0.00     0.004 C 
ATOM  11894  C28 PYP   170     -31.911 -52.208  -9.145  1.00  0.00     0.027 C 
ATOM  11895  C29 PYP   170     -33.223 -52.309  -8.401  1.00  0.00    -0.031 C 
ATOM  11896  C31 PYP   170     -30.321 -46.888 -15.846  1.00  0.00     0.258 C 
ATOM  11897  O31 PYP   170     -30.889 -47.976 -16.345  1.00  0.00    -0.319 OA
ATOM  11898  C32 PYP   170     -31.177 -46.358 -14.690  1.00  0.00     0.111 C 
ATOM  11899  O32 PYP   170     -29.265 -46.409 -16.219  1.00  0.00    -0.265 OA
ATOM  11900  C33 PYP   170     -30.895 -47.177 -13.414  1.00  0.00     0.010 C 
ATOM  11901  C34 PYP   170     -31.737 -46.783 -12.191  1.00  0.00     0.000 C 
ATOM  11902  C35 PYP   170     -31.440 -45.463 -11.483  1.00  0.00     0.000 C 
ATOM  11903  C36 PYP   170     -30.162 -45.400 -10.645  1.00  0.00     0.000 C 
ATOM  11904  C37 PYP   170     -29.668 -46.527  -9.763  1.00  0.00     0.000 C 
ATOM  11905  C38 PYP   170     -30.647 -46.862  -8.642  1.00  0.00     0.000 C 
ATOM  11906  C39 PYP   170     -30.624 -48.349  -8.277  1.00  0.00     0.000 C 
ATOM  11907  C21 PYP   170     -33.403 -52.641  -7.114  1.00  0.00    -0.031 C 
ATOM  11908  C21 PYP   170     -32.320 -52.984  -6.146  1.00  0.00     0.027 C 
ATOM  11909  C21 PYP   170     -32.205 -54.466  -6.020  1.00  0.00     0.004 C 
ATOM  11910  C21 PYP   170     -31.004 -54.678  -5.083  1.00  0.00     0.000 C 
ATOM  11911  C21 PYP   170     -31.507 -54.552  -3.634  1.00  0.00    -0.000 C 
ATOM  11912  C21 PYP   170     -30.518 -55.054  -2.546  1.00  0.00    -0.005 C 
ATOM  11913  C21 PYP   170     -30.926 -55.093  -1.043  1.00  0.00     0.005 C 
ATOM  11914  C31 PYP   170     -31.681 -48.733  -7.226  1.00  0.00     0.000 C 
ATOM  11915  C31 PYP   170     -31.546 -47.992  -5.886  1.00  0.00     0.000 C 
ATOM  11916  C31 PYP   170     -32.595 -48.432  -4.854  1.00  0.00     0.000 C 
ATOM  11917  C31 PYP   170     -32.130 -48.201  -3.408  1.00  0.00     0.000 C 
ATOM  11918  C31 PYP   170     -33.197 -48.581  -2.360  1.00  0.00    -0.000 C 
ATOM  11919  C31 PYP   170     -32.751 -49.464  -1.174  1.00  0.00    -0.005 C 
ATOM  11920  C31 PYP   170     -32.181 -50.852  -1.487  1.00  0.00     0.005 C 
ATOM  11921  HN1 PYP   170     -35.192 -50.334 -23.564  1.00  0.00     0.274 HD
ATOM  11922  HN2 PYP   170     -35.351 -49.580 -22.068  1.00  0.00     0.274 HD
ATOM  11923  HN3 PYP   170     -35.969 -48.824 -23.477  1.00  0.00     0.274 HD
ATOM  11924  N   YOP   171     -34.174  49.326 -21.609  1.00  0.00    -0.077 N 
ATOM  11925  P   YOP   171     -37.131  48.219 -17.979  1.00  0.00     0.408 P 
ATOM  11926  C1  YOP   171     -35.303  47.540 -16.292  1.00  0.00     0.216 C 
ATOM  11927  C2  YOP   171     -34.793  47.884 -14.874  1.00  0.00     0.180 C 
ATOM  11928  C3  YOP   171     -33.775  49.060 -14.831  1.00  0.00     0.213 C 
ATOM  11929  C11 YOP   171     -35.000  48.153 -19.571  1.00  0.00     0.208 C 
ATOM  11930  O11 YOP   171     -36.175  48.556 -16.771  1.00  0.00    -0.287 OA
ATOM  11931  C12 YOP   171     -35.374  48.678 -20.960  1.00  0.00     0.256 C 
ATOM  11932  O12 YOP   171     -36.123  47.500 -18.989  1.00  0.00    -0.288 OA
ATOM  11933  O13 YOP   171     -38.175  47.246 -17.582  1.00  0.00    -0.624 OA
ATOM  11934  O14 YOP   171     -37.541  49.465 -18.639  1.00  0.00    -0.624 OA
ATOM  11935  C21 YOP   171     -36.665  47.281 -13.638  1.00  0.00     0.259 C 
ATOM  11936  O21 YOP   171     -35.892  48.259 -14.023  1.00  0.00    -0.312 OA
ATOM  11937  C22 YOP   171     -37.893  47.881 -12.947  1.00  0.00     0.111 C 
ATOM  11938  O22 YOP   171     -36.426  46.088 -13.732  1.00  0.00    -0.265 OA
ATOM  11939  C23 YOP   171     -38.822  46.744 -12.487  1.00  0.00     0.010 C 
ATOM  11940  C24 YOP   171     -40.074  47.199 -11.713  1.00  0.00     0.000 C 
ATOM  11941  C25 YOP   171     -39.870  47.353 -10.191  1.00  0.00     0.000 C 
ATOM  11942  C26 YOP   171     -39.087  48.592  -9.716  1.00  0.00     0.000 C 
ATOM  11943  C27 YOP   171     -39.256  48.883  -8.206  1.00  0.00     0.004 C 
ATOM  11944  C28 YOP   171     -38.492  50.111  -7.653  1.00  0.00     0.027 C 
ATOM  11945  C29 YOP   171     -37.024  49.812  -7.823  1.00  0.00    -0.031 C 
ATOM  11946  C31 YOP   171     -32.737  48.622 -12.779  1.00  0.00     0.258 C 
ATOM  11947  O31 YOP   171     -33.542  49.425 -13.462  1.00  0.00    -0.319 OA
ATOM  11948  C32 YOP   171     -33.059  48.840 -11.290  1.00  0.00     0.111 C 
ATOM  11949  O32 YOP   171     -31.956  47.810 -13.239  1.00  0.00    -0.265 OA
ATOM  11950  C33 YOP   171     -32.088  48.114 -10.335  1.00  0.00     0.010 C 
ATOM  11951  C34 YOP   171     -32.493  48.161  -8.865  1.00  0.00     0.000 C 
ATOM  11952  C35 YOP   171     -32.522  49.565  -8.314  1.00  0.00     0.000 C 
ATOM  11953  C36 YOP   171     -32.281  49.487  -6.836  1.00  0.00     0.000 C 
ATOM  11954  C37 YOP   171     -32.414  50.834  -6.253  1.00  0.00     0.004 C 
ATOM  11955  C38 YOP   171     -31.744  50.724  -4.899  1.00  0.00     0.027 C 
ATOM  11956  C39 YOP   171     -32.395  49.913  -3.854  1.00  0.00    -0.031 C 
ATOM  11957  C21 YOP   171     -36.133  49.584  -6.843  1.00  0.00    -0.031 C 
ATOM  11958  C21 YOP   171     -36.356  49.581  -5.353  1.00  0.00     0.027 C 
ATOM  11959  C21 YOP   171     -36.489  48.244  -4.593  1.00  0.00     0.004 C 
ATOM  11960  C21 YOP   171     -35.323  47.257  -4.822  1.00  0.00     0.000 C 
ATOM  11961  C21 YOP   171     -35.065  46.288  -3.655  1.00  0.00     0.000 C 
ATOM  11962  C21 YOP   171     -34.642  47.006  -2.358  1.00  0.00     0.000 C 
ATOM  11963  C21 YOP   171     -34.300  46.087  -1.177  1.00  0.00    -0.000 C 
ATOM  11964  C21 YOP   171     -33.829  46.864   0.066  1.00  0.00    -0.005 C 
ATOM  11965  C21 YOP   171     -33.392  45.976   1.232  1.00  0.00     0.005 C 
ATOM  11966  C31 YOP   171     -33.091  50.292  -2.749  1.00  0.00    -0.031 C 
ATOM  11967  C31 YOP   171     -33.454  51.627  -2.174  1.00  0.00     0.027 C 
ATOM  11968  C31 YOP   171     -34.422  52.535  -2.925  1.00  0.00     0.004 C 
ATOM  11969  C31 YOP   171     -35.834  52.183  -2.603  1.00  0.00     0.000 C 
ATOM  11970  C31 YOP   171     -36.090  52.124  -1.095  1.00  0.00    -0.000 C 
ATOM  11971  C31 YOP   171     -37.568  51.927  -0.767  1.00  0.00    -0.005 C 
ATOM  11972  C31 YOP   171     -38.088  50.544  -1.174  1.00  0.00     0.005 C 
ATOM  11973  HN1 YOP   171     -34.433  49.825 -22.478  1.00  0.00     0.274 HD
ATOM  11974  HN2 YOP   171     -33.749  50.003 -20.946  1.00  0.00     0.274 HD
ATOM  11975  HN3 YOP   171     -33.463  48.600 -21.847  1.00  0.00     0.274 HD
ATOM  11976  N   PYP   172     -50.241 -34.103 -23.382  1.00  0.00    -0.077 N 
ATOM  11977  P   PYP   172     -48.065 -37.711 -20.653  1.00  0.00     0.408 P 
ATOM  11978  C1  PYP   172     -46.039 -36.872 -19.181  1.00  0.00     0.216 C 
ATOM  11979  C2  PYP   172     -45.837 -36.709 -17.651  1.00  0.00     0.180 C 
ATOM  11980  C3  PYP   172     -46.242 -35.303 -17.132  1.00  0.00     0.213 C 
ATOM  11981  C11 PYP   172     -48.778 -35.475 -21.896  1.00  0.00     0.208 C 
ATOM  11982  O11 PYP   172     -47.423 -36.764 -19.549  1.00  0.00    -0.287 OA
ATOM  11983  C12 PYP   172     -49.185 -35.171 -23.342  1.00  0.00     0.256 C 
ATOM  11984  O12 PYP   172     -48.048 -36.696 -21.902  1.00  0.00    -0.288 OA
ATOM  11985  O13 PYP   172     -47.160 -38.832 -20.954  1.00  0.00    -0.624 OA
ATOM  11986  O14 PYP   172     -49.483 -37.971 -20.325  1.00  0.00    -0.624 OA
ATOM  11987  C21 PYP   172     -46.184 -38.178 -15.849  1.00  0.00     0.259 C 
ATOM  11988  O21 PYP   172     -46.632 -37.718 -16.998  1.00  0.00    -0.312 OA
ATOM  11989  C22 PYP   172     -47.167 -39.233 -15.314  1.00  0.00     0.111 C 
ATOM  11990  O22 PYP   172     -45.135 -37.870 -15.308  1.00  0.00    -0.265 OA
ATOM  11991  C23 PYP   172     -46.877 -39.649 -13.848  1.00  0.00     0.010 C 
ATOM  11992  C24 PYP   172     -47.835 -40.727 -13.304  1.00  0.00     0.000 C 
ATOM  11993  C25 PYP   172     -47.587 -41.177 -11.849  1.00  0.00     0.000 C 
ATOM  11994  C26 PYP   172     -47.270 -40.122 -10.768  1.00  0.00     0.000 C 
ATOM  11995  C27 PYP   172     -46.863 -40.708  -9.384  1.00  0.00     0.004 C 
ATOM  11996  C28 PYP   172     -46.781 -39.743  -8.169  1.00  0.00     0.027 C 
ATOM  11997  C29 PYP   172     -45.795 -38.585  -8.259  1.00  0.00    -0.031 C 
ATOM  11998  C31 PYP   172     -46.364 -34.226 -15.064  1.00  0.00     0.258 C 
ATOM  11999  O31 PYP   172     -46.300 -35.362 -15.701  1.00  0.00    -0.319 OA
ATOM  12000  C32 PYP   172     -46.422 -34.524 -13.573  1.00  0.00     0.111 C 
ATOM  12001  O32 PYP   172     -46.393 -33.122 -15.577  1.00  0.00    -0.265 OA
ATOM  12002  C33 PYP   172     -47.668 -35.335 -13.191  1.00  0.00     0.010 C 
ATOM  12003  C34 PYP   172     -47.624 -35.711 -11.706  1.00  0.00     0.000 C 
ATOM  12004  C35 PYP   172     -47.362 -34.539 -10.742  1.00  0.00     0.000 C 
ATOM  12005  C36 PYP   172     -47.572 -34.941  -9.274  1.00  0.00     0.000 C 
ATOM  12006  C37 PYP   172     -49.063 -35.065  -8.889  1.00  0.00     0.000 C 
ATOM  12007  C38 PYP   172     -49.299 -35.671  -7.497  1.00  0.00     0.000 C 
ATOM  12008  C39 PYP   172     -49.114 -34.637  -6.390  1.00  0.00     0.000 C 
ATOM  12009  C21 PYP   172     -44.640 -38.335  -7.622  1.00  0.00    -0.031 C 
ATOM  12010  C21 PYP   172     -43.971 -39.134  -6.624  1.00  0.00     0.027 C 
ATOM  12011  C21 PYP   172     -43.902 -38.571  -5.234  1.00  0.00     0.004 C 
ATOM  12012  C21 PYP   172     -45.231 -38.716  -4.528  1.00  0.00     0.000 C 
ATOM  12013  C21 PYP   172     -45.020 -38.820  -3.013  1.00  0.00    -0.000 C 
ATOM  12014  C21 PYP   172     -43.989 -37.840  -2.415  1.00  0.00    -0.005 C 
ATOM  12015  C21 PYP   172     -44.550 -36.440  -2.500  1.00  0.00     0.005 C 
ATOM  12016  C31 PYP   172     -49.354 -35.180  -4.972  1.00  0.00     0.000 C 
ATOM  12017  C31 PYP   172     -50.539 -36.138  -4.835  1.00  0.00     0.000 C 
ATOM  12018  C31 PYP   172     -51.016 -36.347  -3.389  1.00  0.00     0.000 C 
ATOM  12019  C31 PYP   172     -49.986 -36.890  -2.388  1.00  0.00     0.000 C 
ATOM  12020  C31 PYP   172     -50.733 -37.712  -1.320  1.00  0.00    -0.000 C 
ATOM  12021  C31 PYP   172     -49.862 -38.591  -0.421  1.00  0.00    -0.005 C 
ATOM  12022  C31 PYP   172     -48.732 -39.304  -1.153  1.00  0.00     0.005 C 
ATOM  12023  HN1 PYP   172     -50.940 -34.337 -22.648  1.00  0.00     0.274 HD
ATOM  12024  HN2 PYP   172     -49.828 -33.180 -23.145  1.00  0.00     0.274 HD
ATOM  12025  HN3 PYP   172     -50.743 -34.071 -24.299  1.00  0.00     0.274 HD
ATOM  12026  N   POP   173      28.886  51.723 -20.036  1.00  0.00    -0.063 N 
ATOM  12027  P   POP   173      30.734  54.987 -18.098  1.00  0.00     0.408 P 
ATOM  12028  C1  POP   173      30.018  54.778 -15.591  1.00  0.00     0.216 C 
ATOM  12029  C2  POP   173      30.596  54.836 -14.148  1.00  0.00     0.180 C 
ATOM  12030  C3  POP   173      29.421  55.007 -13.156  1.00  0.00     0.213 C 
ATOM  12031  C11 POP   173      28.398  53.916 -18.806  1.00  0.00     0.225 C 
ATOM  12032  O11 POP   173      31.043  55.062 -16.540  1.00  0.00    -0.287 OA
ATOM  12033  C12 POP   173      27.881  52.511 -19.226  1.00  0.00     0.307 C 
ATOM  12034  O12 POP   173      29.630  53.838 -18.110  1.00  0.00    -0.287 OA
ATOM  12035  C13 POP   173      26.531  52.597 -19.968  1.00  0.00     0.206 C 
ATOM  12036  O13 POP   173      30.141  56.231 -18.641  1.00  0.00    -0.624 OA
ATOM  12037  O13 POP   173      26.397  51.953 -21.041  1.00  0.00    -0.646 OA
ATOM  12038  O13 POP   173      25.620  53.285 -19.453  1.00  0.00    -0.646 OA
ATOM  12039  O14 POP   173      31.847  54.388 -18.854  1.00  0.00    -0.624 OA
ATOM  12040  C21 POP   173      31.983  53.615 -12.684  1.00  0.00     0.259 C 
ATOM  12041  O21 POP   173      31.339  53.642 -13.837  1.00  0.00    -0.312 OA
ATOM  12042  C22 POP   173      32.245  52.146 -12.337  1.00  0.00     0.111 C 
ATOM  12043  O22 POP   173      32.331  54.585 -12.032  1.00  0.00    -0.265 OA
ATOM  12044  C23 POP   173      32.341  51.961 -10.833  1.00  0.00     0.010 C 
ATOM  12045  C24 POP   173      30.937  51.695 -10.352  1.00  0.00     0.000 C 
ATOM  12046  C25 POP   173      30.922  50.872  -9.070  1.00  0.00     0.000 C 
ATOM  12047  C26 POP   173      31.544  51.570  -7.841  1.00  0.00     0.000 C 
ATOM  12048  C27 POP   173      30.834  52.887  -7.480  1.00  0.00     0.004 C 
ATOM  12049  C28 POP   173      31.359  53.596  -6.203  1.00  0.00     0.027 C 
ATOM  12050  C29 POP   173      31.416  55.087  -6.367  1.00  0.00    -0.031 C 
ATOM  12051  C31 POP   173      27.490  54.015 -12.424  1.00  0.00     0.258 C 
ATOM  12052  O31 POP   173      28.610  53.816 -13.110  1.00  0.00    -0.319 OA
ATOM  12053  C32 POP   173      26.781  52.691 -12.257  1.00  0.00     0.111 C 
ATOM  12054  O32 POP   173      27.131  55.082 -11.961  1.00  0.00    -0.265 OA
ATOM  12055  C33 POP   173      25.536  52.789 -11.350  1.00  0.00     0.010 C 
ATOM  12056  C34 POP   173      25.211  51.419 -10.738  1.00  0.00     0.000 C 
ATOM  12057  C35 POP   173      26.244  50.950  -9.680  1.00  0.00     0.000 C 
ATOM  12058  C36 POP   173      25.842  49.692  -8.882  1.00  0.00     0.000 C 
ATOM  12059  C37 POP   173      25.469  49.925  -7.406  1.00  0.00     0.000 C 
ATOM  12060  C38 POP   173      26.606  50.398  -6.494  1.00  0.00     0.000 C 
ATOM  12061  C39 POP   173      27.762  49.401  -6.323  1.00  0.00     0.000 C 
ATOM  12062  C21 POP   173      30.373  55.925  -6.474  1.00  0.00    -0.031 C 
ATOM  12063  C21 POP   173      28.902  55.677  -6.453  1.00  0.00     0.027 C 
ATOM  12064  C21 POP   173      28.314  56.442  -5.230  1.00  0.00     0.004 C 
ATOM  12065  C21 POP   173      26.786  56.612  -5.093  1.00  0.00     0.000 C 
ATOM  12066  C21 POP   173      25.902  55.351  -4.962  1.00  0.00     0.000 C 
ATOM  12067  C21 POP   173      26.229  54.320  -3.867  1.00  0.00     0.000 C 
ATOM  12068  C21 POP   173      24.963  53.545  -3.460  1.00  0.00    -0.000 C 
ATOM  12069  C21 POP   173      25.293  52.311  -2.609  1.00  0.00    -0.005 C 
ATOM  12070  C21 POP   173      25.958  52.624  -1.261  1.00  0.00     0.005 C 
ATOM  12071  C31 POP   173      28.802  49.845  -5.275  1.00  0.00     0.000 C 
ATOM  12072  C31 POP   173      28.260  49.921  -3.834  1.00  0.00     0.000 C 
ATOM  12073  C31 POP   173      29.306  50.210  -2.739  1.00  0.00     0.000 C 
ATOM  12074  C31 POP   173      29.430  51.722  -2.495  1.00  0.00     0.000 C 
ATOM  12075  C31 POP   173      30.596  52.143  -1.586  1.00  0.00    -0.000 C 
ATOM  12076  C31 POP   173      30.898  53.649  -1.643  1.00  0.00    -0.005 C 
ATOM  12077  C31 POP   173      32.040  54.051  -0.700  1.00  0.00     0.005 C 
ATOM  12078  HN1 POP   173      29.487  51.124 -19.445  1.00  0.00     0.275 HD
ATOM  12079  HN2 POP   173      28.309  51.173 -20.721  1.00  0.00     0.275 HD
ATOM  12080  HN3 POP   173      29.490  52.360 -20.573  1.00  0.00     0.275 HD
ATOM  12081  P   YOP   174     -49.358  35.734 -19.404  1.00  0.00     0.406 P 
ATOM  12082  C1  YOP   174     -50.357  35.566 -16.990  1.00  0.00     0.216 C 
ATOM  12083  C2  YOP   174     -50.121  34.973 -15.562  1.00  0.00     0.180 C 
ATOM  12084  C3  YOP   174     -50.443  33.455 -15.472  1.00  0.00     0.213 C 
ATOM  12085  O11 YOP   174     -49.297  35.266 -17.891  1.00  0.00    -0.287 OA
ATOM  12086  O12 YOP   174     -50.231  34.722 -20.189  1.00  0.00    -0.300 OA
ATOM  12087  O13 YOP   174     -48.027  35.667 -20.022  1.00  0.00    -0.624 OA
ATOM  12088  O14 YOP   174     -50.101  36.999 -19.557  1.00  0.00    -0.624 OA
ATOM  12089  C21 YOP   174     -48.277  36.329 -14.891  1.00  0.00     0.259 C 
ATOM  12090  O21 YOP   174     -48.794  35.137 -15.040  1.00  0.00    -0.312 OA
ATOM  12091  C22 YOP   174     -46.857  36.152 -14.298  1.00  0.00     0.111 C 
ATOM  12092  O22 YOP   174     -48.806  37.402 -15.113  1.00  0.00    -0.265 OA
ATOM  12093  C23 YOP   174     -46.743  35.477 -12.889  1.00  0.00     0.010 C 
ATOM  12094  C24 YOP   174     -47.080  36.354 -11.663  1.00  0.00     0.000 C 
ATOM  12095  C25 YOP   174     -48.539  36.363 -11.186  1.00  0.00     0.000 C 
ATOM  12096  C26 YOP   174     -48.678  37.071  -9.828  1.00  0.00     0.000 C 
ATOM  12097  C27 YOP   174     -50.002  37.819  -9.679  1.00  0.00     0.004 C 
ATOM  12098  C28 YOP   174     -51.200  36.848  -9.669  1.00  0.00     0.027 C 
ATOM  12099  C29 YOP   174     -52.487  37.450  -9.160  1.00  0.00    -0.031 C 
ATOM  12100  C31 YOP   174     -49.666  32.868 -13.335  1.00  0.00     0.258 C 
ATOM  12101  O31 YOP   174     -50.745  33.137 -14.083  1.00  0.00    -0.319 OA
ATOM  12102  C32 YOP   174     -50.048  32.693 -11.853  1.00  0.00     0.111 C 
ATOM  12103  O32 YOP   174     -48.545  32.663 -13.755  1.00  0.00    -0.265 OA
ATOM  12104  C33 YOP   174     -48.820  32.309 -10.966  1.00  0.00     0.010 C 
ATOM  12105  C34 YOP   174     -49.168  31.840  -9.530  1.00  0.00     0.000 C 
ATOM  12106  C35 YOP   174     -48.872  32.919  -8.478  1.00  0.00     0.000 C 
ATOM  12107  C36 YOP   174     -49.456  32.646  -7.077  1.00  0.00     0.000 C 
ATOM  12108  C37 YOP   174     -49.455  33.915  -6.200  1.00  0.00     0.004 C 
ATOM  12109  C38 YOP   174     -48.036  34.472  -5.953  1.00  0.00     0.027 C 
ATOM  12110  C39 YOP   174     -48.030  35.738  -5.137  1.00  0.00    -0.031 C 
ATOM  12111  C21 YOP   174     -52.834  37.633  -7.870  1.00  0.00    -0.031 C 
ATOM  12112  C21 YOP   174     -51.995  37.272  -6.669  1.00  0.00     0.027 C 
ATOM  12113  C21 YOP   174     -52.716  37.534  -5.321  1.00  0.00     0.004 C 
ATOM  12114  C21 YOP   174     -51.799  37.412  -4.082  1.00  0.00     0.000 C 
ATOM  12115  C21 YOP   174     -52.502  37.654  -2.724  1.00  0.00     0.000 C 
ATOM  12116  C21 YOP   174     -51.555  37.794  -1.491  1.00  0.00     0.000 C 
ATOM  12117  C21 YOP   174     -50.940  36.487  -0.940  1.00  0.00    -0.000 C 
ATOM  12118  C21 YOP   174     -50.897  36.331   0.602  1.00  0.00    -0.005 C 
ATOM  12119  C21 YOP   174     -50.273  37.480   1.416  1.00  0.00     0.005 C 
ATOM  12120  C31 YOP   174     -47.139  36.076  -4.191  1.00  0.00    -0.031 C 
ATOM  12121  C31 YOP   174     -45.942  35.304  -3.708  1.00  0.00     0.027 C 
ATOM  12122  C31 YOP   174     -46.011  34.911  -2.216  1.00  0.00     0.004 C 
ATOM  12123  C31 YOP   174     -46.741  33.593  -1.879  1.00  0.00     0.000 C 
ATOM  12124  C31 YOP   174     -48.280  33.640  -1.812  1.00  0.00    -0.000 C 
ATOM  12125  C31 YOP   174     -48.931  32.250  -1.686  1.00  0.00    -0.005 C 
ATOM  12126  C31 YOP   174     -48.482  31.549  -0.409  1.00  0.00     0.005 C 
ATOM  12127  H12 YOP   174     -49.990  34.742 -21.121  1.00  0.00     0.223 HD
ATOM  12128  P   YOP   175      38.921  50.002 -18.999  1.00  0.00     0.406 P 
ATOM  12129  C1  YOP   175      36.768  51.469 -18.894  1.00  0.00     0.216 C 
ATOM  12130  C2  YOP   175      36.145  52.336 -17.779  1.00  0.00     0.180 C 
ATOM  12131  C3  YOP   175      35.188  51.417 -16.984  1.00  0.00     0.213 C 
ATOM  12132  O11 YOP   175      37.772  50.709 -18.244  1.00  0.00    -0.287 OA
ATOM  12133  O12 YOP   175      39.763  51.121 -19.687  1.00  0.00    -0.300 OA
ATOM  12134  O13 YOP   175      38.369  49.170 -20.084  1.00  0.00    -0.624 OA
ATOM  12135  O14 YOP   175      39.849  49.395 -18.035  1.00  0.00    -0.624 OA
ATOM  12136  C21 YOP   175      37.686  53.997 -17.100  1.00  0.00     0.259 C 
ATOM  12137  O21 YOP   175      37.173  52.812 -16.867  1.00  0.00    -0.312 OA
ATOM  12138  C22 YOP   175      38.966  54.203 -16.266  1.00  0.00     0.111 C 
ATOM  12139  O22 YOP   175      37.233  54.845 -17.849  1.00  0.00    -0.265 OA
ATOM  12140  C23 YOP   175      39.973  53.018 -16.283  1.00  0.00     0.010 C 
ATOM  12141  C24 YOP   175      41.141  53.179 -15.278  1.00  0.00     0.000 C 
ATOM  12142  C25 YOP   175      40.698  53.354 -13.801  1.00  0.00     0.000 C 
ATOM  12143  C26 YOP   175      41.718  52.877 -12.741  1.00  0.00     0.000 C 
ATOM  12144  C27 YOP   175      41.384  53.187 -11.265  1.00  0.00     0.004 C 
ATOM  12145  C28 YOP   175      40.604  52.072 -10.515  1.00  0.00     0.027 C 
ATOM  12146  C29 YOP   175      41.364  50.814 -10.126  1.00  0.00    -0.031 C 
ATOM  12147  C31 YOP   175      35.256  51.913 -14.683  1.00  0.00     0.258 C 
ATOM  12148  O31 YOP   175      34.678  52.116 -15.852  1.00  0.00    -0.319 OA
ATOM  12149  C32 YOP   175      34.749  52.974 -13.730  1.00  0.00     0.111 C 
ATOM  12150  O32 YOP   175      35.973  50.979 -14.373  1.00  0.00    -0.265 OA
ATOM  12151  C33 YOP   175      35.466  54.293 -13.468  1.00  0.00     0.010 C 
ATOM  12152  C34 YOP   175      36.583  54.125 -12.423  1.00  0.00     0.000 C 
ATOM  12153  C35 YOP   175      36.075  53.726 -11.019  1.00  0.00     0.000 C 
ATOM  12154  C36 YOP   175      37.105  53.857  -9.894  1.00  0.00     0.000 C 
ATOM  12155  C37 YOP   175      36.643  53.180  -8.589  1.00  0.00     0.004 C 
ATOM  12156  C38 YOP   175      37.732  53.232  -7.508  1.00  0.00     0.027 C 
ATOM  12157  C39 YOP   175      37.612  54.534  -6.763  1.00  0.00    -0.031 C 
ATOM  12158  C21 YOP   175      40.956  49.530 -10.223  1.00  0.00    -0.031 C 
ATOM  12159  C21 YOP   175      39.631  49.055 -10.755  1.00  0.00     0.027 C 
ATOM  12160  C21 YOP   175      38.785  48.302  -9.712  1.00  0.00     0.004 C 
ATOM  12161  C21 YOP   175      38.400  49.168  -8.506  1.00  0.00     0.000 C 
ATOM  12162  C21 YOP   175      37.217  48.592  -7.715  1.00  0.00     0.000 C 
ATOM  12163  C21 YOP   175      36.822  49.473  -6.532  1.00  0.00     0.000 C 
ATOM  12164  C21 YOP   175      37.895  49.476  -5.437  1.00  0.00    -0.000 C 
ATOM  12165  C21 YOP   175      37.285  49.881  -4.095  1.00  0.00    -0.005 C 
ATOM  12166  C21 YOP   175      38.258  49.920  -2.913  1.00  0.00     0.005 C 
ATOM  12167  C31 YOP   175      36.951  54.761  -5.618  1.00  0.00    -0.031 C 
ATOM  12168  C31 YOP   175      36.175  53.751  -4.812  1.00  0.00     0.027 C 
ATOM  12169  C31 YOP   175      36.634  53.699  -3.348  1.00  0.00     0.004 C 
ATOM  12170  C31 YOP   175      36.357  55.003  -2.595  1.00  0.00     0.000 C 
ATOM  12171  C31 YOP   175      36.131  54.789  -1.088  1.00  0.00    -0.000 C 
ATOM  12172  C31 YOP   175      37.014  55.649  -0.173  1.00  0.00    -0.005 C 
ATOM  12173  C31 YOP   175      36.396  55.812   1.211  1.00  0.00     0.005 C 
ATOM  12174  H12 YOP   175      40.588  50.728 -19.985  1.00  0.00     0.223 HD
ATOM  12175  P   POP   176      48.127 -40.727 -19.407  1.00  0.00     0.408 P 
ATOM  12176  C1  POP   176      50.434 -40.511 -18.154  1.00  0.00     0.216 C 
ATOM  12177  C2  POP   176      51.138 -41.880 -18.245  1.00  0.00     0.180 C 
ATOM  12178  O2  POP   176      50.530 -40.767 -23.030  1.00  0.00    -0.390 OA
ATOM  12179  C3  POP   176      52.668 -41.684 -18.127  1.00  0.00     0.213 C 
ATOM  12180  O3  POP   176      48.885 -41.787 -25.221  1.00  0.00    -0.390 OA
ATOM  12181  O4  POP   176      48.029 -39.234 -26.126  1.00  0.00    -0.390 OA
ATOM  12182  O5  POP   176      47.660 -37.092 -24.228  1.00  0.00    -0.390 OA
ATOM  12183  O6  POP   176      48.042 -37.587 -21.479  1.00  0.00    -0.390 OA
ATOM  12184  C11 POP   176      48.496 -39.965 -21.933  1.00  0.00     0.197 C 
ATOM  12185  O11 POP   176      49.028 -40.669 -18.135  1.00  0.00    -0.287 OA
ATOM  12186  C12 POP   176      49.115 -40.933 -22.926  1.00  0.00     0.181 C 
ATOM  12187  O12 POP   176      49.087 -40.169 -20.635  1.00  0.00    -0.279 OA
ATOM  12188  C13 POP   176      48.444 -40.794 -24.291  1.00  0.00     0.180 C 
ATOM  12189  O13 POP   176      47.814 -42.135 -19.721  1.00  0.00    -0.624 OA
ATOM  12190  C14 POP   176      48.563 -39.351 -24.797  1.00  0.00     0.180 C 
ATOM  12191  O14 POP   176      46.987 -39.788 -19.370  1.00  0.00    -0.624 OA
ATOM  12192  C15 POP   176      47.883 -38.429 -23.773  1.00  0.00     0.180 C 
ATOM  12193  C16 POP   176      48.602 -38.515 -22.420  1.00  0.00     0.181 C 
ATOM  12194  C21 POP   176      50.642 -43.931 -17.334  1.00  0.00     0.259 C 
ATOM  12195  O21 POP   176      50.606 -42.656 -17.173  1.00  0.00    -0.312 OA
ATOM  12196  C22 POP   176      49.659 -44.531 -16.375  1.00  0.00     0.111 C 
ATOM  12197  O22 POP   176      51.315 -44.558 -18.135  1.00  0.00    -0.265 OA
ATOM  12198  C23 POP   176      50.293 -44.730 -15.010  1.00  0.00     0.010 C 
ATOM  12199  C24 POP   176      50.317 -43.630 -13.973  1.00  0.00     0.000 C 
ATOM  12200  C25 POP   176      49.226 -42.600 -14.078  1.00  0.00     0.000 C 
ATOM  12201  C26 POP   176      49.500 -41.598 -12.980  1.00  0.00     0.000 C 
ATOM  12202  C27 POP   176      48.389 -40.571 -12.813  1.00  0.00     0.004 C 
ATOM  12203  C28 POP   176      48.334 -40.129 -11.347  1.00  0.00     0.027 C 
ATOM  12204  C29 POP   176      47.696 -41.115 -10.415  1.00  0.00    -0.031 C 
ATOM  12205  C31 POP   176      53.876 -41.627 -16.094  1.00  0.00     0.258 C 
ATOM  12206  O31 POP   176      52.982 -41.036 -16.872  1.00  0.00    -0.319 OA
ATOM  12207  C32 POP   176      53.994 -40.833 -14.772  1.00  0.00     0.111 C 
ATOM  12208  O32 POP   176      54.519 -42.619 -16.386  1.00  0.00    -0.265 OA
ATOM  12209  C33 POP   176      54.663 -41.666 -13.657  1.00  0.00     0.010 C 
ATOM  12210  C34 POP   176      54.715 -40.984 -12.276  1.00  0.00     0.000 C 
ATOM  12211  C35 POP   176      53.379 -41.065 -11.511  1.00  0.00     0.000 C 
ATOM  12212  C36 POP   176      53.276 -40.019 -10.383  1.00  0.00     0.000 C 
ATOM  12213  C37 POP   176      53.657 -40.510  -8.969  1.00  0.00     0.000 C 
ATOM  12214  C38 POP   176      53.693 -39.355  -7.934  1.00  0.00     0.000 C 
ATOM  12215  C39 POP   176      54.449 -39.643  -6.624  1.00  0.00     0.000 C 
ATOM  12216  C21 POP   176      48.331 -41.828  -9.472  1.00  0.00    -0.031 C 
ATOM  12217  C21 POP   176      49.805 -41.817  -9.129  1.00  0.00     0.027 C 
ATOM  12218  C21 POP   176      50.113 -41.332  -7.702  1.00  0.00     0.004 C 
ATOM  12219  C21 POP   176      49.250 -42.039  -6.637  1.00  0.00     0.000 C 
ATOM  12220  C21 POP   176      49.679 -41.719  -5.200  1.00  0.00     0.000 C 
ATOM  12221  C21 POP   176      49.447 -40.260  -4.808  1.00  0.00     0.000 C 
ATOM  12222  C21 POP   176      50.045 -39.899  -3.427  1.00  0.00    -0.000 C 
ATOM  12223  C21 POP   176      49.362 -40.358  -2.113  1.00  0.00    -0.005 C 
ATOM  12224  C21 POP   176      47.915 -39.895  -1.859  1.00  0.00     0.005 C 
ATOM  12225  C31 POP   176      53.814 -40.755  -5.801  1.00  0.00     0.000 C 
ATOM  12226  C31 POP   176      54.222 -40.751  -4.323  1.00  0.00     0.000 C 
ATOM  12227  C31 POP   176      53.416 -41.772  -3.500  1.00  0.00     0.000 C 
ATOM  12228  C31 POP   176      53.654 -41.740  -1.991  1.00  0.00     0.000 C 
ATOM  12229  C31 POP   176      53.232 -40.433  -1.308  1.00  0.00    -0.000 C 
ATOM  12230  C31 POP   176      53.762 -40.313   0.138  1.00  0.00    -0.005 C 
ATOM  12231  C31 POP   176      53.108 -39.254   1.040  1.00  0.00     0.005 C 
ATOM  12232  HO2 POP   176      50.927 -41.391 -22.414  1.00  0.00     0.210 HD
ATOM  12233  HO3 POP   176      48.978 -42.622 -24.751  1.00  0.00     0.210 HD
ATOM  12234  HO4 POP   176      47.074 -39.186 -26.070  1.00  0.00     0.210 HD
ATOM  12235  HO5 POP   176      47.072 -36.633 -23.618  1.00  0.00     0.210 HD
ATOM  12236  HO6 POP   176      47.307 -38.016 -21.034  1.00  0.00     0.210 HD
ATOM  12237  N   POP   177      44.052 -48.055 -20.703  1.00  0.00    -0.063 N 
ATOM  12238  P   POP   177      43.698 -50.035 -17.473  1.00  0.00     0.408 P 
ATOM  12239  C1  POP   177      46.171 -49.467 -16.787  1.00  0.00     0.216 C 
ATOM  12240  C2  POP   177      46.477 -48.332 -15.776  1.00  0.00     0.180 C 
ATOM  12241  C3  POP   177      47.855 -47.701 -16.037  1.00  0.00     0.213 C 
ATOM  12242  C11 POP   177      42.700 -47.905 -18.614  1.00  0.00     0.225 C 
ATOM  12243  O11 POP   177      44.919 -50.071 -16.500  1.00  0.00    -0.287 OA
ATOM  12244  C12 POP   177      42.673 -48.209 -20.115  1.00  0.00     0.307 C 
ATOM  12245  O12 POP   177      43.818 -48.539 -18.001  1.00  0.00    -0.287 OA
ATOM  12246  C13 POP   177      41.389 -47.611 -20.750  1.00  0.00     0.206 C 
ATOM  12247  O13 POP   177      43.974 -50.910 -18.634  1.00  0.00    -0.624 OA
ATOM  12248  O13 POP   177      41.497 -46.923 -21.789  1.00  0.00    -0.646 OA
ATOM  12249  O13 POP   177      40.274 -47.890 -20.216  1.00  0.00    -0.646 OA
ATOM  12250  O14 POP   177      42.453 -50.181 -16.698  1.00  0.00    -0.624 OA
ATOM  12251  C21 POP   177      44.478 -47.378 -14.927  1.00  0.00     0.259 C 
ATOM  12252  O21 POP   177      45.480 -47.278 -15.808  1.00  0.00    -0.312 OA
ATOM  12253  C22 POP   177      43.514 -46.185 -15.125  1.00  0.00     0.111 C 
ATOM  12254  O22 POP   177      44.379 -48.211 -14.049  1.00  0.00    -0.265 OA
ATOM  12255  C23 POP   177      42.194 -46.339 -14.326  1.00  0.00     0.010 C 
ATOM  12256  C24 POP   177      41.294 -47.491 -14.830  1.00  0.00     0.000 C 
ATOM  12257  C25 POP   177      40.182 -47.906 -13.848  1.00  0.00     0.000 C 
ATOM  12258  C26 POP   177      40.740 -48.674 -12.637  1.00  0.00     0.000 C 
ATOM  12259  C27 POP   177      39.740 -48.837 -11.486  1.00  0.00     0.004 C 
ATOM  12260  C28 POP   177      40.374 -49.460 -10.232  1.00  0.00     0.027 C 
ATOM  12261  C29 POP   177      41.303 -48.458  -9.585  1.00  0.00    -0.031 C 
ATOM  12262  C31 POP   177      48.722 -47.551 -13.859  1.00  0.00     0.258 C 
ATOM  12263  O31 POP   177      48.154 -46.886 -14.885  1.00  0.00    -0.319 OA
ATOM  12264  C32 POP   177      49.243 -46.593 -12.776  1.00  0.00     0.111 C 
ATOM  12265  O32 POP   177      48.927 -48.744 -13.842  1.00  0.00    -0.265 OA
ATOM  12266  C33 POP   177      48.423 -46.479 -11.511  1.00  0.00     0.010 C 
ATOM  12267  C34 POP   177      47.092 -45.709 -11.692  1.00  0.00     0.000 C 
ATOM  12268  C35 POP   177      46.404 -45.531 -10.336  1.00  0.00     0.000 C 
ATOM  12269  C36 POP   177      44.924 -45.090 -10.406  1.00  0.00     0.000 C 
ATOM  12270  C37 POP   177      44.315 -44.930  -8.998  1.00  0.00     0.000 C 
ATOM  12271  C38 POP   177      42.790 -44.755  -8.909  1.00  0.00     0.000 C 
ATOM  12272  C39 POP   177      42.230 -44.887  -7.472  1.00  0.00     0.000 C 
ATOM  12273  C21 POP   177      42.399 -48.719  -8.855  1.00  0.00    -0.031 C 
ATOM  12274  C21 POP   177      42.924 -50.086  -8.523  1.00  0.00     0.027 C 
ATOM  12275  C21 POP   177      43.425 -50.226  -7.065  1.00  0.00     0.004 C 
ATOM  12276  C21 POP   177      44.442 -49.200  -6.500  1.00  0.00     0.000 C 
ATOM  12277  C21 POP   177      44.792 -49.623  -5.051  1.00  0.00     0.000 C 
ATOM  12278  C21 POP   177      46.047 -49.028  -4.379  1.00  0.00     0.000 C 
ATOM  12279  C21 POP   177      46.418 -49.724  -3.042  1.00  0.00    -0.000 C 
ATOM  12280  C21 POP   177      47.360 -48.904  -2.127  1.00  0.00    -0.005 C 
ATOM  12281  C21 POP   177      47.522 -49.428  -0.691  1.00  0.00     0.005 C 
ATOM  12282  C31 POP   177      42.889 -43.955  -6.423  1.00  0.00     0.000 C 
ATOM  12283  C31 POP   177      42.714 -44.300  -4.924  1.00  0.00     0.000 C 
ATOM  12284  C31 POP   177      43.341 -45.621  -4.462  1.00  0.00     0.000 C 
ATOM  12285  C31 POP   177      43.127 -45.860  -2.967  1.00  0.00     0.000 C 
ATOM  12286  C31 POP   177      44.105 -45.106  -2.060  1.00  0.00    -0.000 C 
ATOM  12287  C31 POP   177      44.334 -45.894  -0.759  1.00  0.00    -0.005 C 
ATOM  12288  C31 POP   177      43.020 -46.209  -0.023  1.00  0.00     0.005 C 
ATOM  12289  HN1 POP   177      44.328 -47.073 -20.853  1.00  0.00     0.275 HD
ATOM  12290  HN2 POP   177      44.659 -48.478 -19.966  1.00  0.00     0.275 HD
ATOM  12291  HN3 POP   177      44.185 -48.584 -21.589  1.00  0.00     0.275 HD
ATOM  12292  N   POP   178     -45.143  46.641 -19.087  1.00  0.00    -0.063 N 
ATOM  12293  P   POP   178     -48.840  45.075 -19.177  1.00  0.00     0.408 P 
ATOM  12294  C1  POP   178     -47.593  43.511 -17.493  1.00  0.00     0.216 C 
ATOM  12295  C2  POP   178     -46.819  43.606 -16.141  1.00  0.00     0.180 C 
ATOM  12296  C3  POP   178     -45.670  44.692 -16.147  1.00  0.00     0.213 C 
ATOM  12297  C11 POP   178     -47.529  47.384 -19.281  1.00  0.00     0.225 C 
ATOM  12298  O11 POP   178     -48.248  44.759 -17.751  1.00  0.00    -0.287 OA
ATOM  12299  C12 POP   178     -46.042  47.786 -19.475  1.00  0.00     0.307 C 
ATOM  12300  O12 POP   178     -47.680  46.020 -19.684  1.00  0.00    -0.287 OA
ATOM  12301  C13 POP   178     -45.700  49.088 -18.751  1.00  0.00     0.206 C 
ATOM  12302  O13 POP   178     -48.817  43.821 -19.945  1.00  0.00    -0.624 OA
ATOM  12303  O13 POP   178     -44.658  49.109 -18.047  1.00  0.00    -0.646 OA
ATOM  12304  O13 POP   178     -46.465  50.061 -18.926  1.00  0.00    -0.646 OA
ATOM  12305  O14 POP   178     -50.105  45.834 -19.063  1.00  0.00    -0.624 OA
ATOM  12306  C21 POP   178     -48.437  42.870 -14.622  1.00  0.00     0.259 C 
ATOM  12307  O21 POP   178     -47.707  43.893 -15.046  1.00  0.00    -0.312 OA
ATOM  12308  C22 POP   178     -49.028  43.237 -13.250  1.00  0.00     0.111 C 
ATOM  12309  O22 POP   178     -48.464  41.762 -15.119  1.00  0.00    -0.265 OA
ATOM  12310  C23 POP   178     -47.964  43.996 -12.411  1.00  0.00     0.010 C 
ATOM  12311  C24 POP   178     -47.884  43.754 -10.891  1.00  0.00     0.000 C 
ATOM  12312  C25 POP   178     -46.783  44.653 -10.308  1.00  0.00     0.000 C 
ATOM  12313  C26 POP   178     -46.260  44.331  -8.908  1.00  0.00     0.000 C 
ATOM  12314  C27 POP   178     -45.480  45.564  -8.442  1.00  0.00     0.004 C 
ATOM  12315  C28 POP   178     -44.982  45.413  -7.004  1.00  0.00     0.027 C 
ATOM  12316  C29 POP   178     -44.491  46.703  -6.464  1.00  0.00    -0.031 C 
ATOM  12317  C31 POP   178     -45.430  46.824 -14.966  1.00  0.00     0.258 C 
ATOM  12318  O31 POP   178     -46.123  46.035 -15.809  1.00  0.00    -0.319 OA
ATOM  12319  C32 POP   178     -46.225  48.109 -14.662  1.00  0.00     0.111 C 
ATOM  12320  O32 POP   178     -44.318  46.577 -14.537  1.00  0.00    -0.265 OA
ATOM  12321  C33 POP   178     -47.601  47.816 -14.013  1.00  0.00     0.010 C 
ATOM  12322  C34 POP   178     -48.357  49.043 -13.445  1.00  0.00     0.000 C 
ATOM  12323  C35 POP   178     -47.759  49.756 -12.209  1.00  0.00     0.000 C 
ATOM  12324  C36 POP   178     -47.678  48.874 -10.948  1.00  0.00     0.000 C 
ATOM  12325  C37 POP   178     -49.035  48.657 -10.240  1.00  0.00     0.000 C 
ATOM  12326  C38 POP   178     -49.390  49.724  -9.183  1.00  0.00     0.000 C 
ATOM  12327  C39 POP   178     -48.733  49.473  -7.813  1.00  0.00     0.000 C 
ATOM  12328  C21 POP   178     -44.734  47.319  -5.299  1.00  0.00    -0.031 C 
ATOM  12329  C21 POP   178     -45.578  46.943  -4.134  1.00  0.00     0.027 C 
ATOM  12330  C21 POP   178     -44.665  46.624  -2.949  1.00  0.00     0.004 C 
ATOM  12331  C21 POP   178     -43.971  45.279  -3.212  1.00  0.00     0.000 C 
ATOM  12332  C21 POP   178     -43.326  44.655  -2.002  1.00  0.00     0.000 C 
ATOM  12333  C21 POP   178     -44.328  44.445  -0.953  1.00  0.00     0.000 C 
ATOM  12334  C21 POP   178     -45.489  43.597  -1.571  1.00  0.00    -0.000 C 
ATOM  12335  C21 POP   178     -45.126  42.110  -1.746  1.00  0.00    -0.005 C 
ATOM  12336  C21 POP   178     -46.288  41.086  -1.766  1.00  0.00     0.005 C 
ATOM  12337  C31 POP   178     -49.624  48.872  -6.713  1.00  0.00     0.000 C 
ATOM  12338  C31 POP   178     -48.840  48.618  -5.418  1.00  0.00     0.000 C 
ATOM  12339  C31 POP   178     -49.747  48.566  -4.182  1.00  0.00     0.000 C 
ATOM  12340  C31 POP   178     -49.035  48.052  -2.932  1.00  0.00     0.000 C 
ATOM  12341  C31 POP   178     -49.909  48.291  -1.686  1.00  0.00    -0.000 C 
ATOM  12342  C31 POP   178     -49.130  48.413  -0.402  1.00  0.00    -0.005 C 
ATOM  12343  C31 POP   178     -48.597  47.140  -0.250  1.00  0.00     0.005 C 
ATOM  12344  HN1 POP   178     -45.465  46.309 -18.160  1.00  0.00     0.275 HD
ATOM  12345  HN2 POP   178     -45.340  45.883 -19.762  1.00  0.00     0.275 HD
ATOM  12346  HN3 POP   178     -44.144  46.940 -19.029  1.00  0.00     0.275 HD
ATOM  12347  N   YOP   179      51.328  42.303 -20.959  1.00  0.00    -0.077 N 
ATOM  12348  P   YOP   179      51.199  43.630 -17.165  1.00  0.00     0.408 P 
ATOM  12349  C1  YOP   179      49.063  43.443 -15.741  1.00  0.00     0.216 C 
ATOM  12350  C2  YOP   179      49.481  43.448 -14.258  1.00  0.00     0.180 C 
ATOM  12351  C3  YOP   179      48.617  44.419 -13.427  1.00  0.00     0.213 C 
ATOM  12352  C11 YOP   179      51.524  41.359 -18.476  1.00  0.00     0.209 C 
ATOM  12353  O11 YOP   179      50.051  42.746 -16.505  1.00  0.00    -0.287 OA
ATOM  12354  C12 YOP   179      51.729  41.195 -19.994  1.00  0.00     0.262 C 
ATOM  12355  O12 YOP   179      52.015  42.624 -18.066  1.00  0.00    -0.288 OA
ATOM  12356  C13 YOP   179      51.392  41.728 -22.316  1.00  0.00     0.271 C 
ATOM  12357  O13 YOP   179      52.079  44.216 -16.138  1.00  0.00    -0.624 OA
ATOM  12358  C14 YOP   179      49.922  42.763 -20.660  1.00  0.00     0.271 C 
ATOM  12359  O14 YOP   179      50.493  44.557 -18.082  1.00  0.00    -0.624 OA
ATOM  12360  C15 YOP   179      52.239  43.490 -20.929  1.00  0.00     0.271 C 
ATOM  12361  C21 YOP   179      50.364  41.316 -13.772  1.00  0.00     0.259 C 
ATOM  12362  O21 YOP   179      49.323  42.130 -13.715  1.00  0.00    -0.312 OA
ATOM  12363  C22 YOP   179      49.988  40.033 -13.041  1.00  0.00     0.111 C 
ATOM  12364  O22 YOP   179      51.471  41.547 -14.205  1.00  0.00    -0.265 OA
ATOM  12365  C23 YOP   179      49.625  40.363 -11.579  1.00  0.00     0.010 C 
ATOM  12366  C24 YOP   179      50.775  40.919 -10.706  1.00  0.00     0.000 C 
ATOM  12367  C25 YOP   179      52.162  40.285 -10.890  1.00  0.00     0.000 C 
ATOM  12368  C26 YOP   179      53.142  40.759  -9.787  1.00  0.00     0.000 C 
ATOM  12369  C27 YOP   179      53.508  42.257  -9.886  1.00  0.00     0.004 C 
ATOM  12370  C28 YOP   179      54.753  42.689  -9.093  1.00  0.00     0.027 C 
ATOM  12371  C29 YOP   179      54.849  42.357  -7.631  1.00  0.00    -0.031 C 
ATOM  12372  C31 YOP   179      48.533  44.472 -11.075  1.00  0.00     0.258 C 
ATOM  12373  O31 YOP   179      49.254  44.632 -12.158  1.00  0.00    -0.319 OA
ATOM  12374  C32 YOP   179      49.407  44.850  -9.884  1.00  0.00     0.111 C 
ATOM  12375  O32 YOP   179      47.367  44.123 -11.019  1.00  0.00    -0.265 OA
ATOM  12376  C33 YOP   179      48.559  44.866  -8.615  1.00  0.00     0.010 C 
ATOM  12377  C34 YOP   179      49.336  45.324  -7.377  1.00  0.00     0.000 C 
ATOM  12378  C35 YOP   179      48.381  45.511  -6.187  1.00  0.00     0.000 C 
ATOM  12379  C36 YOP   179      47.559  44.258  -5.869  1.00  0.00     0.000 C 
ATOM  12380  C37 YOP   179      48.485  43.104  -5.469  1.00  0.00     0.004 C 
ATOM  12381  C38 YOP   179      47.819  41.799  -4.992  1.00  0.00     0.027 C 
ATOM  12382  C39 YOP   179      46.783  41.960  -3.908  1.00  0.00    -0.031 C 
ATOM  12383  C21 YOP   179      54.219  42.986  -6.626  1.00  0.00    -0.031 C 
ATOM  12384  C21 YOP   179      53.277  44.162  -6.737  1.00  0.00     0.027 C 
ATOM  12385  C21 YOP   179      53.148  44.776  -5.333  1.00  0.00     0.004 C 
ATOM  12386  C21 YOP   179      52.296  46.052  -5.229  1.00  0.00     0.000 C 
ATOM  12387  C21 YOP   179      52.566  46.838  -3.924  1.00  0.00     0.000 C 
ATOM  12388  C21 YOP   179      52.443  46.031  -2.624  1.00  0.00     0.000 C 
ATOM  12389  C21 YOP   179      53.172  46.705  -1.447  1.00  0.00    -0.000 C 
ATOM  12390  C21 YOP   179      52.757  46.074  -0.112  1.00  0.00    -0.005 C 
ATOM  12391  C21 YOP   179      51.306  46.319   0.334  1.00  0.00     0.005 C 
ATOM  12392  C31 YOP   179      47.004  41.877  -2.580  1.00  0.00    -0.031 C 
ATOM  12393  C31 YOP   179      48.322  41.607  -1.881  1.00  0.00     0.027 C 
ATOM  12394  C31 YOP   179      49.324  42.786  -1.830  1.00  0.00     0.004 C 
ATOM  12395  C31 YOP   179      50.624  42.487  -1.051  1.00  0.00     0.000 C 
ATOM  12396  C31 YOP   179      51.564  41.446  -1.696  1.00  0.00    -0.000 C 
ATOM  12397  C31 YOP   179      53.046  41.504  -1.288  1.00  0.00    -0.005 C 
ATOM  12398  C31 YOP   179      53.334  41.503   0.212  1.00  0.00     0.005 C 
ATOM  12399  P   POP   180     -43.396 -51.997 -19.503  1.00  0.00     0.408 P 
ATOM  12400  C1  POP   180     -41.166 -53.387 -19.030  1.00  0.00     0.216 C 
ATOM  12401  C2  POP   180     -40.794 -54.421 -17.934  1.00  0.00     0.180 C 
ATOM  12402  O2  POP   180     -41.741 -52.987 -23.387  1.00  0.00    -0.390 OA
ATOM  12403  C3  POP   180     -39.796 -53.807 -16.902  1.00  0.00     0.213 C 
ATOM  12404  O3  POP   180     -43.763 -53.214 -25.568  1.00  0.00    -0.390 OA
ATOM  12405  O4  POP   180     -43.580 -50.542 -26.319  1.00  0.00    -0.390 OA
ATOM  12406  O5  POP   180     -42.751 -48.539 -24.451  1.00  0.00    -0.390 OA
ATOM  12407  O6  POP   180     -42.852 -49.176 -21.687  1.00  0.00    -0.390 OA
ATOM  12408  C11 POP   180     -43.295 -51.525 -22.177  1.00  0.00     0.197 C 
ATOM  12409  O11 POP   180     -42.245 -52.565 -18.590  1.00  0.00    -0.287 OA
ATOM  12410  C12 POP   180     -43.121 -52.632 -23.218  1.00  0.00     0.181 C 
ATOM  12411  O12 POP   180     -42.664 -51.989 -20.971  1.00  0.00    -0.279 OA
ATOM  12412  C13 POP   180     -43.733 -52.190 -24.551  1.00  0.00     0.180 C 
ATOM  12413  O13 POP   180     -44.471 -52.996 -19.611  1.00  0.00    -0.624 OA
ATOM  12414  C14 POP   180     -43.079 -50.905 -25.025  1.00  0.00     0.180 C 
ATOM  12415  O14 POP   180     -43.717 -50.597 -19.151  1.00  0.00    -0.624 OA
ATOM  12416  C15 POP   180     -43.261 -49.797 -23.988  1.00  0.00     0.180 C 
ATOM  12417  C16 POP   180     -42.663 -50.220 -22.645  1.00  0.00     0.181 C 
ATOM  12418  C21 POP   180     -42.654 -55.831 -17.698  1.00  0.00     0.259 C 
ATOM  12419  O21 POP   180     -41.990 -54.794 -17.226  1.00  0.00    -0.312 OA
ATOM  12420  C22 POP   180     -43.961 -56.010 -16.923  1.00  0.00     0.111 C 
ATOM  12421  O22 POP   180     -42.255 -56.564 -18.586  1.00  0.00    -0.265 OA
ATOM  12422  C23 POP   180     -43.700 -56.476 -15.477  1.00  0.00     0.010 C 
ATOM  12423  C24 POP   180     -44.919 -56.349 -14.548  1.00  0.00     0.000 C 
ATOM  12424  C25 POP   180     -45.473 -54.907 -14.334  1.00  0.00     0.000 C 
ATOM  12425  C26 POP   180     -44.529 -53.753 -13.902  1.00  0.00     0.000 C 
ATOM  12426  C27 POP   180     -43.884 -53.994 -12.527  1.00  0.00     0.004 C 
ATOM  12427  C28 POP   180     -42.762 -53.022 -12.053  1.00  0.00     0.027 C 
ATOM  12428  C29 POP   180     -43.121 -51.897 -11.099  1.00  0.00    -0.031 C 
ATOM  12429  C31 POP   180     -40.166 -54.866 -14.843  1.00  0.00     0.258 C 
ATOM  12430  O31 POP   180     -39.344 -54.745 -15.883  1.00  0.00    -0.319 OA
ATOM  12431  C32 POP   180     -39.669 -55.949 -13.859  1.00  0.00     0.111 C 
ATOM  12432  O32 POP   180     -41.171 -54.203 -14.673  1.00  0.00    -0.265 OA
ATOM  12433  C33 POP   180     -40.619 -56.056 -12.652  1.00  0.00     0.010 C 
ATOM  12434  C34 POP   180     -40.161 -57.099 -11.636  1.00  0.00     0.000 C 
ATOM  12435  C35 POP   180     -41.154 -57.253 -10.474  1.00  0.00     0.000 C 
ATOM  12436  C36 POP   180     -42.529 -57.651 -10.977  1.00  0.00     0.000 C 
ATOM  12437  C37 POP   180     -43.256 -58.462  -9.918  1.00  0.00     0.000 C 
ATOM  12438  C38 POP   180     -43.288 -57.804  -8.533  1.00  0.00     0.000 C 
ATOM  12439  C39 POP   180     -44.344 -58.521  -7.719  1.00  0.00     0.000 C 
ATOM  12440  C21 POP   180     -42.713 -51.798  -9.807  1.00  0.00    -0.031 C 
ATOM  12441  C21 POP   180     -41.828 -52.814  -9.117  1.00  0.00     0.027 C 
ATOM  12442  C21 POP   180     -41.875 -52.846  -7.572  1.00  0.00     0.004 C 
ATOM  12443  C21 POP   180     -40.685 -53.554  -6.911  1.00  0.00     0.000 C 
ATOM  12444  C21 POP   180     -40.693 -53.222  -5.401  1.00  0.00     0.000 C 
ATOM  12445  C21 POP   180     -39.691 -52.113  -5.015  1.00  0.00     0.000 C 
ATOM  12446  C21 POP   180     -39.635 -51.787  -3.508  1.00  0.00    -0.000 C 
ATOM  12447  C21 POP   180     -40.814 -50.964  -2.954  1.00  0.00    -0.005 C 
ATOM  12448  C21 POP   180     -40.725 -50.820  -1.426  1.00  0.00     0.005 C 
ATOM  12449  C31 POP   180     -44.537 -58.089  -6.266  1.00  0.00     0.000 C 
ATOM  12450  C31 POP   180     -44.967 -56.665  -5.993  1.00  0.00     0.000 C 
ATOM  12451  C31 POP   180     -45.537 -56.480  -4.569  1.00  0.00     0.000 C 
ATOM  12452  C31 POP   180     -44.563 -56.743  -3.407  1.00  0.00     0.000 C 
ATOM  12453  C31 POP   180     -43.467 -55.683  -3.303  1.00  0.00    -0.000 C 
ATOM  12454  C31 POP   180     -42.666 -55.792  -2.014  1.00  0.00    -0.005 C 
ATOM  12455  C31 POP   180     -41.599 -54.711  -2.009  1.00  0.00     0.005 C 
ATOM  12456  HO2 POP   180     -41.579 -53.848 -22.984  1.00  0.00     0.210 HD
ATOM  12457  HO3 POP   180     -44.582 -53.147 -26.066  1.00  0.00     0.210 HD
ATOM  12458  HO4 POP   180     -42.810 -50.254 -26.819  1.00  0.00     0.210 HD
ATOM  12459  HO5 POP   180     -41.905 -48.653 -24.889  1.00  0.00     0.210 HD
ATOM  12460  HO6 POP   180     -42.789 -49.537 -20.790  1.00  0.00     0.210 HD
ATOM  12461  N   POP   181     -51.247 -45.592 -21.540  1.00  0.00    -0.063 N 
ATOM  12462  P   POP   181     -50.513 -47.137 -16.739  1.00  0.00     0.408 P 
ATOM  12463  C1  POP   181     -53.041 -47.258 -16.233  1.00  0.00     0.216 C 
ATOM  12464  C2  POP   181     -54.131 -46.459 -15.500  1.00  0.00     0.180 C 
ATOM  12465  C3  POP   181     -55.518 -47.045 -15.808  1.00  0.00     0.213 C 
ATOM  12466  C11 POP   181     -51.401 -46.527 -19.167  1.00  0.00     0.225 C 
ATOM  12467  O11 POP   181     -51.875 -46.458 -16.317  1.00  0.00    -0.287 OA
ATOM  12468  C12 POP   181     -50.725 -46.622 -20.567  1.00  0.00     0.307 C 
ATOM  12469  O12 POP   181     -50.769 -47.417 -18.263  1.00  0.00    -0.287 OA
ATOM  12470  C13 POP   181     -50.761 -48.043 -21.127  1.00  0.00     0.206 C 
ATOM  12471  O13 POP   181     -49.453 -46.118 -16.615  1.00  0.00    -0.624 OA
ATOM  12472  O13 POP   181     -51.477 -48.250 -22.147  1.00  0.00    -0.646 OA
ATOM  12473  O13 POP   181     -50.025 -48.899 -20.593  1.00  0.00    -0.646 OA
ATOM  12474  O14 POP   181     -50.362 -48.416 -16.012  1.00  0.00    -0.624 OA
ATOM  12475  C21 POP   181     -54.368 -45.567 -13.329  1.00  0.00     0.259 C 
ATOM  12476  O21 POP   181     -53.854 -46.508 -14.081  1.00  0.00    -0.312 OA
ATOM  12477  C22 POP   181     -54.133 -45.870 -11.840  1.00  0.00     0.111 C 
ATOM  12478  O22 POP   181     -55.000 -44.614 -13.729  1.00  0.00    -0.265 OA
ATOM  12479  C23 POP   181     -55.433 -46.296 -11.116  1.00  0.00     0.010 C 
ATOM  12480  C24 POP   181     -55.165 -47.171  -9.882  1.00  0.00     0.000 C 
ATOM  12481  C25 POP   181     -55.190 -46.489  -8.509  1.00  0.00     0.000 C 
ATOM  12482  C26 POP   181     -54.024 -45.546  -8.250  1.00  0.00     0.000 C 
ATOM  12483  C27 POP   181     -54.085 -45.061  -6.814  1.00  0.00     0.004 C 
ATOM  12484  C28 POP   181     -53.360 -43.741  -6.649  1.00  0.00     0.027 C 
ATOM  12485  C29 POP   181     -51.894 -43.822  -6.363  1.00  0.00    -0.031 C 
ATOM  12486  C31 POP   181     -55.329 -49.193 -16.152  1.00  0.00     0.258 C 
ATOM  12487  O31 POP   181     -55.686 -48.333 -15.266  1.00  0.00    -0.319 OA
ATOM  12488  C32 POP   181     -54.930 -50.385 -15.453  1.00  0.00     0.111 C 
ATOM  12489  O32 POP   181     -55.364 -49.091 -17.357  1.00  0.00    -0.265 OA
ATOM  12490  C33 POP   181     -54.223 -50.209 -14.064  1.00  0.00     0.010 C 
ATOM  12491  C34 POP   181     -53.368 -51.385 -13.420  1.00  0.00     0.000 C 
ATOM  12492  C35 POP   181     -52.994 -51.232 -11.929  1.00  0.00     0.000 C 
ATOM  12493  C36 POP   181     -52.130 -50.069 -11.650  1.00  0.00     0.000 C 
ATOM  12494  C37 POP   181     -51.991 -49.880 -10.146  1.00  0.00     0.000 C 
ATOM  12495  C38 POP   181     -51.029 -48.742  -9.885  1.00  0.00     0.000 C 
ATOM  12496  C39 POP   181     -50.394 -48.918  -8.513  1.00  0.00     0.000 C 
ATOM  12497  C21 POP   181     -51.280 -43.649  -5.172  1.00  0.00    -0.031 C 
ATOM  12498  C21 POP   181     -51.897 -43.335  -3.833  1.00  0.00     0.027 C 
ATOM  12499  C21 POP   181     -51.531 -44.293  -2.695  1.00  0.00     0.004 C 
ATOM  12500  C21 POP   181     -52.093 -43.887  -1.328  1.00  0.00     0.000 C 
ATOM  12501  C21 POP   181     -51.349 -44.654  -0.244  1.00  0.00     0.000 C 
ATOM  12502  C21 POP   181     -51.732 -44.255   1.181  1.00  0.00     0.000 C 
ATOM  12503  C21 POP   181     -53.168 -44.577   1.601  1.00  0.00    -0.000 C 
ATOM  12504  C21 POP   181     -53.522 -46.033   1.380  1.00  0.00    -0.005 C 
ATOM  12505  C21 POP   181     -54.953 -46.290   1.740  1.00  0.00     0.005 C 
ATOM  12506  C31 POP   181     -51.369 -48.623  -7.368  1.00  0.00     0.000 C 
ATOM  12507  C31 POP   181     -50.669 -48.828  -6.024  1.00  0.00     0.000 C 
ATOM  12508  C31 POP   181     -51.053 -47.786  -4.975  1.00  0.00     0.000 C 
ATOM  12509  C31 POP   181     -50.295 -47.961  -3.651  1.00  0.00     0.000 C 
ATOM  12510  C31 POP   181     -50.746 -49.245  -2.938  1.00  0.00    -0.000 C 
ATOM  12511  C31 POP   181     -50.091 -49.498  -1.583  1.00  0.00    -0.005 C 
ATOM  12512  C31 POP   181     -50.760 -50.681  -0.881  1.00  0.00     0.005 C 
ATOM  12513  HN1 POP   181     -51.271 -46.042 -22.487  1.00  0.00     0.275 HD
ATOM  12514  HN2 POP   181     -52.189 -45.279 -21.263  1.00  0.00     0.275 HD
ATOM  12515  HN3 POP   181     -50.603 -44.779 -21.558  1.00  0.00     0.275 HD
ATOM  12516  N   YOP   182      51.000  49.840 -18.731  1.00  0.00    -0.077 N 
ATOM  12517  P   YOP   182      51.609  54.237 -19.283  1.00  0.00     0.408 P 
ATOM  12518  C1  YOP   182      51.977  55.327 -16.939  1.00  0.00     0.216 C 
ATOM  12519  C2  YOP   182      52.052  54.748 -15.498  1.00  0.00     0.180 C 
ATOM  12520  C3  YOP   182      52.265  55.636 -14.273  1.00  0.00     0.213 C 
ATOM  12521  C11 YOP   182      52.524  51.857 -18.924  1.00  0.00     0.208 C 
ATOM  12522  O11 YOP   182      51.550  54.215 -17.725  1.00  0.00    -0.287 OA
ATOM  12523  C12 YOP   182      51.644  50.999 -18.008  1.00  0.00     0.256 C 
ATOM  12524  O12 YOP   182      51.673  52.704 -19.685  1.00  0.00    -0.288 OA
ATOM  12525  O13 YOP   182      50.327  54.774 -19.770  1.00  0.00    -0.624 OA
ATOM  12526  O14 YOP   182      52.851  54.885 -19.714  1.00  0.00    -0.624 OA
ATOM  12527  C21 YOP   182      50.998  52.926 -14.802  1.00  0.00     0.259 C 
ATOM  12528  O21 YOP   182      50.827  54.142 -15.164  1.00  0.00    -0.312 OA
ATOM  12529  C22 YOP   182      49.991  52.611 -13.704  1.00  0.00     0.111 C 
ATOM  12530  O22 YOP   182      51.843  52.142 -15.213  1.00  0.00    -0.265 OA
ATOM  12531  C23 YOP   182      49.796  53.763 -12.673  1.00  0.00     0.010 C 
ATOM  12532  C24 YOP   182      48.752  53.530 -11.568  1.00  0.00     0.000 C 
ATOM  12533  C25 YOP   182      48.348  54.809 -10.799  1.00  0.00     0.000 C 
ATOM  12534  C26 YOP   182      49.492  55.696 -10.275  1.00  0.00     0.000 C 
ATOM  12535  C27 YOP   182      49.113  56.581  -9.065  1.00  0.00     0.004 C 
ATOM  12536  C28 YOP   182      50.235  57.593  -8.749  1.00  0.00     0.027 C 
ATOM  12537  C29 YOP   182      50.146  58.205  -7.370  1.00  0.00    -0.031 C 
ATOM  12538  C31 YOP   182      52.648  55.963 -11.991  1.00  0.00     0.258 C 
ATOM  12539  O31 YOP   182      52.540  55.057 -12.982  1.00  0.00    -0.319 OA
ATOM  12540  C32 YOP   182      53.014  55.365 -10.670  1.00  0.00     0.111 C 
ATOM  12541  O32 YOP   182      52.412  57.146 -12.041  1.00  0.00    -0.265 OA
ATOM  12542  C33 YOP   182      54.361  54.750 -10.208  1.00  0.00     0.010 C 
ATOM  12543  C34 YOP   182      54.192  54.361  -8.746  1.00  0.00     0.000 C 
ATOM  12544  C35 YOP   182      52.966  53.504  -8.484  1.00  0.00     0.000 C 
ATOM  12545  C36 YOP   182      52.956  52.224  -9.318  1.00  0.00     0.000 C 
ATOM  12546  C37 YOP   182      51.559  51.604  -9.308  1.00  0.00     0.004 C 
ATOM  12547  C38 YOP   182      50.892  51.392  -7.928  1.00  0.00     0.027 C 
ATOM  12548  C39 YOP   182      51.489  50.247  -7.150  1.00  0.00    -0.031 C 
ATOM  12549  C21 YOP   182      50.743  57.761  -6.240  1.00  0.00    -0.031 C 
ATOM  12550  C21 YOP   182      51.637  56.559  -6.065  1.00  0.00     0.027 C 
ATOM  12551  C21 YOP   182      52.753  56.661  -5.004  1.00  0.00     0.004 C 
ATOM  12552  C21 YOP   182      53.220  55.231  -4.682  1.00  0.00     0.000 C 
ATOM  12553  C21 YOP   182      54.150  55.164  -3.476  1.00  0.00     0.000 C 
ATOM  12554  C21 YOP   182      54.437  53.732  -3.021  1.00  0.00     0.000 C 
ATOM  12555  C21 YOP   182      55.168  53.670  -1.678  1.00  0.00    -0.000 C 
ATOM  12556  C21 YOP   182      55.564  52.232  -1.356  1.00  0.00    -0.005 C 
ATOM  12557  C21 YOP   182      54.439  51.195  -1.301  1.00  0.00     0.005 C 
ATOM  12558  C31 YOP   182      51.968  50.187  -5.887  1.00  0.00    -0.031 C 
ATOM  12559  C31 YOP   182      52.073  51.248  -4.809  1.00  0.00     0.027 C 
ATOM  12560  C31 YOP   182      50.696  51.778  -4.353  1.00  0.00     0.004 C 
ATOM  12561  C31 YOP   182      50.657  52.449  -2.961  1.00  0.00     0.000 C 
ATOM  12562  C31 YOP   182      49.255  52.944  -2.558  1.00  0.00    -0.000 C 
ATOM  12563  C31 YOP   182      49.193  53.473  -1.117  1.00  0.00    -0.005 C 
ATOM  12564  C31 YOP   182      47.828  54.055  -0.743  1.00  0.00     0.005 C 
ATOM  12565  HN1 YOP   182      50.327  49.361 -18.105  1.00  0.00     0.274 HD
ATOM  12566  HN2 YOP   182      50.494  50.184 -19.569  1.00  0.00     0.274 HD
ATOM  12567  HN3 YOP   182      51.708  49.149 -19.049  1.00  0.00     0.274 HD
TER   12568      YOP   182 
